Q-Chem Developer Version!
                  Welcome to Q-Chem
     A Quantum Leap Into The Future Of Chemistry


 Q-Chem 5.1, Q-Chem, Inc., Pleasanton, CA (2018)

 Yihan Shao,  Zhengting Gan,  E. Epifanovsky,  A. T. B. Gilbert,  M. Wormit,  
 J. Kussmann,  A. W. Lange,  A. Behn,  Jia Deng,  Xintian Feng,  D. Ghosh,  
 M. Goldey,  P. R. Horn,  L. D. Jacobson,  I. Kaliman,  T. Kus,  A. Landau,  
 Jie Liu,  E. I. Proynov,  R. M. Richard,  R. P. Steele,  E. J. Sundstrom,  
 H. L. Woodcock III,  P. M. Zimmerman,  D. Zuev,  B. Albrecht,  E. Alguire,  
 S. A. Baeppler,  D. Barton,  Z. Benda,  Y. A. Bernard,  E. J. Berquist,  
 K. B. Bravaya,  H. Burton,  D. Casanova,  Chun-Min Chang,  Yunqing Chen,  
 A. Chien,  K. D. Closser,  M. P. Coons,  S. Coriani,  S. Dasgupta,  
 A. L. Dempwolff,  M. Diedenhofen,  Hainam Do,  R. G. Edgar,  Po-Tung Fang,  
 S. Faraji,  S. Fatehi,  Qingguo Feng,  K. D. Fenk,  J. Fosso-Tande,  
 Qinghui Ge,  A. Ghysels,  G. Gidofalvi,  J. Gomes,  J. Gonthier,  A. Gunina,  
 D. Hait,  M. W. D. Hanson-Heine,  P. H. P. Harbach,  A. W. Hauser,  
 J. E. Herr,  E. G. Hohenstein,  Z. C. Holden,  Kerwin Hui,  B. C. Huynh,  
 T.-C. Jagau,  Hyunjun Ji,  B. Kaduk,  K. Khistyaev,  Jaehoon Kim,  
 P. Klunzinger,  K. Koh,  D. Kosenkov,  L. Koulias,  T. Kowalczyk,  
 C. M. Krauter,  A. Kunitsa,  Ka Un Lao,  A. Laurent,  K. V. Lawler,  
 Joonho Lee,  D. Lefrancois,  S. Lehtola,  D. S. Levine,  Yi-Pei Li,  
 You-Sheng Lin,  Fenglai Liu,  E. Livshits,  A. Luenser,  P. Manohar,  
 E. Mansoor,  S. F. Manzer,  Shan-Ping Mao,  Yuezhi Mao,  N. Mardirossian,  
 A. V. Marenich,  T. Markovich,  L. A. Martinez-Martinez,  S. A. Maurer,  
 N. J. Mayhall,  S. C. McKenzie,  J.-M. Mewes,  A. F. Morrison,  
 J. W. Mullinax,  K. Nanda,  T. S. Nguyen-Beck,  R. Olivares-Amaya,  
 J. A. Parkhill,  T. M. Perrine,  F. Plasser,  P. Pokhilko,  S. Prager,  
 A. Prociuk,  E. Ramos,  D. R. Rehn,  F. Rob,  M. Schneider,  N. Sergueev,  
 S. M. Sharada,  S. Sharma,  D. W. Small,  T. Stauch,  T. Stein,  
 Yu-Chuan Su,  A. J. W. Thom,  A. Tkatchenko,  T. Tsuchimochi,  N. M. Tubman,  
 L. Vogt,  M. L. Vidal,  O. Vydrov,  M. A. Watson,  J. Wenzel,  
 M. de Wergifosse,  T. A. Wesolowski,  A. White,  J. Witte,  A. Yamada,  
 Jun Yang,  K. Yao,  S. Yeganeh,  S. R. Yost,  Zhi-Qiang You,  A. Zech,  
 Igor Ying Zhang,  Xing Zhang,  Yan Zhao,  Ying Zhu,  B. R. Brooks,  
 G. K. L. Chan,  C. J. Cramer,  M. S. Gordon,  W. J. Hehre,  A. Klamt,  
 M. W. Schmidt,  C. D. Sherrill,  D. G. Truhlar,  A. Aspuru-Guzik,  R. Baer,  
 A. T. Bell,  N. A. Besley,  Jeng-Da Chai,  A. E. DePrince, III,  
 R. A. DiStasio Jr.,  A. Dreuw,  B. D. Dunietz,  T. R. Furlani,  
 Chao-Ping Hsu,  Yousung Jung,  Jing Kong,  D. S. Lambrecht,  WanZhen Liang,  
 C. Ochsenfeld,  V. A. Rassolov,  L. V. Slipchenko,  J. E. Subotnik,  
 T. Van Voorhis,  J. M. Herbert,  A. I. Krylov,  P. M. W. Gill,  M. Head-Gordon

 Contributors to earlier versions of Q-Chem not listed above: 
 R. D. Adamson,  B. Austin,  J. Baker,  G. J. O. Beran,  K. Brandhorst,  
 S. T. Brown,  E. F. C. Byrd,  A. K. Chakraborty,  C.-L. Cheng,  
 Siu Hung Chien,  D. M. Chipman,  D. L. Crittenden,  H. Dachsel,  
 R. J. Doerksen,  A. D. Dutoi,  L. Fusti-Molnar,  W. A. Goddard III,  
 A. Golubeva-Zadorozhnaya,  S. R. Gwaltney,  G. Hawkins,  A. Heyden,  
 S. Hirata,  G. Kedziora,  F. J. Keil,  C. Kelley,  Jihan Kim,  R. A. King,  
 R. Z. Khaliullin,  P. P. Korambath,  W. Kurlancheek,  A. M. Lee,  M. S. Lee,  
 S. V. Levchenko,  Ching Yeh Lin,  D. Liotard,  R. C. Lochan,  I. Lotan,  
 P. E. Maslen,  N. Nair,  D. P. O'Neill,  D. Neuhauser,  E. Neuscamman,  
 C. M. Oana,  R. Olson,  B. Peters,  R. Peverati,  P. A. Pieniazek,  
 Y. M. Rhee,  J. Ritchie,  M. A. Rohrdanz,  E. Rosta,  N. J. Russ,  
 H. F. Schaefer III,  N. E. Schultz,  N. Shenvi,  A. C. Simmonett,  A. Sodt,  
 D. Stuck,  K. S. Thanthiriwatte,  V. Vanovschi,  Tao Wang,  A. Warshel,  
 C. F. Williams,  Q. Wu,  X. Xu,  W. Zhang

 Please cite Q-Chem as follows:
 Y. Shao et al., Mol. Phys. 113, 184-215 (2015)
 DOI: 10.1080/00268976.2014.952696

 Q-Chem 5.1.1 for Intel X86 EM64T Linux

 Parts of Q-Chem use Armadillo 8.300.2 (Tropical Shenanigans).
 http://arma.sourceforge.net/

 Q-Chem begins on Mon Sep 21 01:04:57 2020  

Host: n0044.mhg0
0

     Scratch files written to /local/scratch/users/yhljason/BH4-_ccsdT_aug-cc-pcVQZ.inp20200921010454//
Input Ideriv = 0
Curr. Ideriv = -1
Max.  Ideriv = 0

Checking the input file for inconsistencies... 	...done.

--------------------------------------------------------------
User input:
--------------------------------------------------------------
$molecule
-1 1
B1       0.0000000000    0.0000000000    0.0000000000
H2       0.7123986049    0.7123986049    0.7123986049
H3        -0.7123986049   -0.7123986049    0.7123986049
H4       -0.7123986049    0.7123986049   -0.7123986049
H5         0.7123986049   -0.7123986049   -0.7123986049
$end

$rem
jobtype sp
method CCSD(T)
xc_grid 000099000590
basis aug-cc-pcVQZ
max_scf_cycles 200
thresh 14
scf_convergence 8
scf_algorithm gdm
symmetry false
sym_ignore true
unrestricted true
gen_scfman true
internal_stability_iter 15
internal_stability_davidson_iter 200
mem_total 128000
cc_memory 96000
cc_backend xm
mem_static 1500
n_frozen_core 0
$end


--------------------------------------------------------------
 ----------------------------------------------------------------
             Standard Nuclear Orientation (Angstroms)
    I     Atom           X                Y                Z
 ----------------------------------------------------------------
    1      B       0.0000000000     0.0000000000     0.0000000000
    2      H       0.7123986049     0.7123986049     0.7123986049
    3      H      -0.7123986049    -0.7123986049     0.7123986049
    4      H      -0.7123986049     0.7123986049    -0.7123986049
    5      H       0.7123986049    -0.7123986049    -0.7123986049
 ----------------------------------------------------------------
 Nuclear Repulsion Energy =    10.1529767674 hartrees
 There are        5 alpha and        5 beta electrons
 Requested basis set is aug-cc-pCVQZ
 There are 85 shells and 293 basis functions
 Total memory of 128000MB is distributed as follows: 
   QALLOC including MEM_STATIC uses 32000MB
   MEM_STATIC is set to 1500MB
   CCMAN JOB total memory use is  96000MB
 Warning: actual memory use might exceed 128000MB

 Total QAlloc Memory Limit  32000 MB
 Mega-Array Size      1467 MB
 MEM_STATIC part      1500 MB

                       Distance Matrix (Angstroms)
             B (  1)   H (  2)   H (  3)   H (  4)
   H (  2)  1.233911
   H (  3)  1.233911  2.014968
   H (  4)  1.233911  2.014968  2.014968
   H (  5)  1.233911  2.014968  2.014968  2.014968
 
 A cutoff of  1.0D-14 yielded   3655 shell pairs
 There are     43647 function pairs (     65712 Cartesian)
 
 -------------------------------------------------------
 OpenMP Integral Computing Module                       
 Release: version 1.0, May 2013, Q-Chem Inc. Pittsburgh 
 -------------------------------------------------------
 Integral Job Info:
 Integral job number is                      11
 Integral operator is                         1
 short-range coefficients                     0
 long-range coefficients              100000000
 Omega coefficients                           0
 if combine SR and LR in K                    0
 Integral screening is                        0
 Integral computing path is                   2
 max size of driver memory is           3200000
 size of driver memory is               1704330
 size of scratch memory is             18511652
 max col of scratch BK array              50625
 max len of scratch array in speh3         2114
 max len of scratch index in speh4           50
 max int batch size is                      520
 min int batch size is                       52
 fixed nKL is                                52
 max L of basis functions is                  4
 order of int derivative is                   0
 number of shells is                         85
 number of basis is                         359
 number of cartesian basis is               359
 number of contracted shell pairs          3655
 number of primitive shell pairs           6095
 maxK2 (contraction) of shell pair           81
 max number of K2 of shell pair               1
 max number of CS2 of shell pair            537
 max number of PS2 of shell pair            537
 mem total for path MDJ                  736752
 -------------------------------------------------------
 Smallest overlap matrix eigenvalue = 3.08E-06

 Scale SEOQF with 1.000000e-01/1.000000e-01/1.000000e-01

 Standard Electronic Orientation quadrupole field applied
 Guess from superposition of atomic densities
 Warning:  Energy on first SCF cycle will be non-variational
 SAD guess density has 9.000000 electrons

 -----------------------------------------------------------------------
  General SCF calculation program by
  Eric Jon Sundstrom, Paul Horn, Yuezhi Mao, Dmitri Zuev, Alec White,
  David Stuck, Shaama M.S., Shane Yost, Joonho Lee, David Small,
  Daniel Levine, Susi Lehtola, Hugh Burton, Evgeny Epifanovsky
 -----------------------------------------------------------------------
Running Object-Oriented UHF
performing a single roothaan step with Fock from read density so that orbitals are available to all algorithms
energy of the guess density (C=0) -26.838914111007
We will preform up to 15 macro iterations over saddle points until a stable solution is found
Energy prior to optimization (guess energy) = -26.955861837761
Begin Timing: Total SCF Calculation
Begin Timing: SCF Single Stationary Point Calculation
begin iterations for algorithm: GDM          
the SCF tolerance is set to 1.00e-08
    1     -26.9558618378      7.65e-02     00000  Normal BFGS step
    2     -26.9864405816      1.80e-02     00000  Normal BFGS step
    3     -26.9892898070      1.90e-03     00000  Normal BFGS step
    4     -26.9893654699      4.15e-04     00000  Normal BFGS step
    5     -26.9893680441      9.46e-05     00000  Normal BFGS step
    6     -26.9893681751      2.41e-05     00000  Normal BFGS step
    7     -26.9893681813      6.50e-06     00000  Normal BFGS step
    8     -26.9893681815      7.06e-07     00000  Normal BFGS step
    9     -26.9893681815      8.39e-08     00000  Normal BFGS step
   10     -26.9893681815      1.52e-08     00000  Normal BFGS step
   11     -26.9893681815      2.69e-09     00000 Convergence criterion met
Timing for Single Stationary Point: 103.00s (wall), 1645.54s (cpu)
Begin Timing: Stability
===================================================
Beginning Test for Internal Stability
===================================================
generating davidson guess vectors based on koopmans excitations
    1      6.00e-01     00000 Davidson Iteration
    2      5.84e-01     00000 Davidson Iteration
    3      1.30e-01     00000 Davidson Iteration
    4      7.09e-02     00000 Davidson Iteration
    5      3.43e-02     00000 Davidson Iteration
    6      8.15e-03     00000 Davidson Iteration
    7      2.19e-03     00000 Davidson Iteration
    8      1.11e-03     00000 Davidson Iteration
    9      6.74e-04     00000 Davidson Iteration
   10      6.39e-04     00000 Davidson Iteration
   11      2.49e-04     00000 Davidson Iteration
   12      1.14e-04     00000 Davidson Iteration
   13      3.85e-05     00000 Davidson Converged
converged_eigenvalues
   0.3703
   0.4226
Threshold for negative eigenvalues: -1.0e-05
solution was a local minimum (stable)
===================================================
End Test for Internal Stability
===================================================
Our SCF solution is stable!
Timing for Total SCF: 352.00s (wall), 5381.46s (cpu)
 Total energy in the final basis set =      -26.9893681815
<S^2> =         -0.000000000
    ==================================================
              The end of Object-Oriented SCFman       
    ==================================================


 ------------------------------------------------------------------------------

   CCMAN2: suite of methods based on coupled cluster
           and equation of motion theories.

   Components:
   * libvmm-1.3-trunk
     by Evgeny Epifanovsky, Ilya Kaliman.
   * libtensor-2.5-trunk
     by Evgeny Epifanovsky, Michael Wormit, Dmitry Zuev, Sam Manzer, 
        Ilya Kaliman.
   * libcc-2.5-trunk
     by Evgeny Epifanovsky, Arik Landau, Tomasz Kus, Kirill Khistyaev, 
        Dmitry Zuev, Prashant Manohar, Xintian Feng, Anna Krylov, 
        Matthew Goldey, Alec White, Thomas Jagau, Kaushik Nanda, 
        Anastasia Gunina, Alexander Kunitsa, Joonho Lee.

   CCMAN original authors:
   Anna I. Krylov, C. David Sherrill, Steven R. Gwaltney,
   Edward F. C. Byrd (2000)
   Sergey V. Levchenko, Lyudmila V. Slipchenko, Tao Wang,
   Ana-Maria C. Cristian (2003)
   Piotr A. Pieniazek, C. Melania Oana, Evgeny Epifanovsky (2007)
   Prashant Manohar (2009)

 ------------------------------------------------------------------------------


 Calculation will run on 16 cores using libxm for tensor contractions

 ------------------------------------------------------------------------------
Libxm Tensor Library
Copyright (c) 2014-2018 Ilya Kaliman
https://github.com/ilyak/libxm
Reference: https://dx.doi.org/10.1002/jcc.24713
 ------------------------------------------------------------------------------

 
 Alpha MOs, Unrestricted
 -- Occupied --                  
 -7.288  -0.452  -0.191  -0.191  -0.191
  1 A     2 A     3 A     4 A     5 A                                          
 -- Virtual --                   
  0.132   0.138   0.138   0.138   0.186   0.186   0.186   0.242
  6 A     7 A     8 A     9 A    10 A    11 A    12 A    13 A                  
  0.253   0.253   0.293   0.293   0.293   0.370   0.374   0.374
 14 A    15 A    16 A    17 A    18 A    19 A    20 A    21 A                  
  0.374   0.418   0.418   0.418   0.441   0.441   0.441   0.478
 22 A    23 A    24 A    25 A    26 A    27 A    28 A    29 A                  
  0.478   0.484   0.512   0.512   0.512   0.602   0.602   0.602
 30 A    31 A    32 A    33 A    34 A    35 A    36 A    37 A                  
  0.654   0.704   0.704   0.704   0.754   0.754   0.754   0.772
 38 A    39 A    40 A    41 A    42 A    43 A    44 A    45 A                  
  0.772   0.772   0.801   0.801   0.841   0.893   0.893   0.893
 46 A    47 A    48 A    49 A    50 A    51 A    52 A    53 A                  
  0.909   0.915   0.915   1.012   1.012   1.012   1.053   1.053
 54 A    55 A    56 A    57 A    58 A    59 A    60 A    61 A                  
  1.053   1.067   1.158   1.158   1.158   1.164   1.164   1.170
 62 A    63 A    64 A    65 A    66 A    67 A    68 A    69 A                  
  1.170   1.170   1.196   1.196   1.196   1.379   1.379   1.379
 70 A    71 A    72 A    73 A    74 A    75 A    76 A    77 A                  
  1.416   1.416   1.416   1.486   1.486   1.696   1.696   1.696
 78 A    79 A    80 A    81 A    82 A    83 A    84 A    85 A                  
  1.715   1.784   1.831   1.831   1.831   1.833   1.833   1.840
 86 A    87 A    88 A    89 A    90 A    91 A    92 A    93 A                  
  1.840   1.840   1.938   1.949   1.949   1.949   2.084   2.084
 94 A    95 A    96 A    97 A    98 A    99 A   100 A   101 A                  
  2.084   2.084   2.087   2.087   2.087   2.121   2.121   2.205
102 A   103 A   104 A   105 A   106 A   107 A   108 A   109 A                  
  2.205   2.205   2.278   2.278   2.278   2.291   2.291   2.291
110 A   111 A   112 A   113 A   114 A   115 A   116 A   117 A                  
  2.291   2.372   2.372   2.372   2.470   2.470   2.484   2.484
118 A   119 A   120 A   121 A   122 A   123 A   124 A   125 A                  
  2.484   2.523   2.523   2.554   2.554   2.554   2.631   2.656
126 A   127 A   128 A   129 A   130 A   131 A   132 A   133 A                  
  2.656   2.656   2.851   2.851   2.851   2.930   2.930   2.930
134 A   135 A   136 A   137 A   138 A   139 A   140 A   141 A                  
  3.132   3.448   3.448   3.461   3.461   3.461   3.586   3.586
142 A   143 A   144 A   145 A   146 A   147 A   148 A   149 A                  
  3.586   3.589   3.676   3.676   3.676   3.709   3.709   3.762
150 A   151 A   152 A   153 A   154 A   155 A   156 A   157 A                  
  3.762   3.762   3.847   3.847   3.847   3.912   4.001   4.001
158 A   159 A   160 A   161 A   162 A   163 A   164 A   165 A                  
  4.001   4.133   4.133   4.133   4.250   4.250   4.250   4.312
166 A   167 A   168 A   169 A   170 A   171 A   172 A   173 A                  
  4.457   4.457   4.809   4.809   4.809   4.877   4.877   4.877
174 A   175 A   176 A   177 A   178 A   179 A   180 A   181 A                  
  4.929   4.954   4.954   5.284   5.284   5.437   5.437   5.437
182 A   183 A   184 A   185 A   186 A   187 A   188 A   189 A                  
  5.615   5.615   5.615   5.917   5.917   5.917   5.996   5.996
190 A   191 A   192 A   193 A   194 A   195 A   196 A   197 A                  
  5.996   6.205   6.986   6.993   6.993   6.993   7.020   7.020
198 A   199 A   200 A   201 A   202 A   203 A   204 A   205 A                  
  7.020   7.295   7.528   7.528   7.528   7.569   7.569   7.569
206 A   207 A   208 A   209 A   210 A   211 A   212 A   213 A                  
  7.958   7.958   8.004   8.095   8.095   8.095   8.279   8.279
214 A   215 A   216 A   217 A   218 A   219 A   220 A   221 A                  
  8.279   8.418   8.418   8.495   8.495   8.495   8.746   8.746
222 A   223 A   224 A   225 A   226 A   227 A   228 A   229 A                  
  8.746   8.950   9.117   9.117   9.308   9.308   9.308   9.349
230 A   231 A   232 A   233 A   234 A   235 A   236 A   237 A                  
  9.349   9.349   9.537   9.537   9.604   9.604   9.604   9.801
238 A   239 A   240 A   241 A   242 A   243 A   244 A   245 A                  
  9.866   9.866   9.866  10.074  10.074  10.074  10.299  10.299
246 A   247 A   248 A   249 A   250 A   251 A   252 A   253 A                  
 10.299  10.412  10.412  10.428  10.428  10.428  10.809  11.404
254 A   255 A   256 A   257 A   258 A   259 A   260 A   261 A                  
 11.404  11.404  12.875  14.812  14.812  14.812  20.365  20.365
262 A   263 A   264 A   265 A   266 A   267 A   268 A   269 A                  
 21.404  21.404  21.404  27.378  46.557  46.557  46.557  76.339
270 A   271 A   272 A   273 A   274 A   275 A   276 A   277 A                  
 76.339  76.339  76.362  76.362  76.362  76.399  85.984  86.638
278 A   279 A   280 A   281 A   282 A   283 A   284 A   285 A                  
 86.638  87.151  87.151  87.151 153.642 153.642 153.642 351.161
286 A   287 A   288 A   289 A   290 A   291 A   292 A   293 A                  
 
 Beta MOs, Unrestricted
 -- Occupied --                  
 -7.288  -0.452  -0.191  -0.191  -0.191
  1 A     2 A     3 A     4 A     5 A                                          
 -- Virtual --                   
  0.132   0.138   0.138   0.138   0.186   0.186   0.186   0.242
  6 A     7 A     8 A     9 A    10 A    11 A    12 A    13 A                  
  0.253   0.253   0.293   0.293   0.293   0.370   0.374   0.374
 14 A    15 A    16 A    17 A    18 A    19 A    20 A    21 A                  
  0.374   0.418   0.418   0.418   0.441   0.441   0.441   0.478
 22 A    23 A    24 A    25 A    26 A    27 A    28 A    29 A                  
  0.478   0.484   0.512   0.512   0.512   0.602   0.602   0.602
 30 A    31 A    32 A    33 A    34 A    35 A    36 A    37 A                  
  0.654   0.704   0.704   0.704   0.754   0.754   0.754   0.772
 38 A    39 A    40 A    41 A    42 A    43 A    44 A    45 A                  
  0.772   0.772   0.801   0.801   0.841   0.893   0.893   0.893
 46 A    47 A    48 A    49 A    50 A    51 A    52 A    53 A                  
  0.909   0.915   0.915   1.012   1.012   1.012   1.053   1.053
 54 A    55 A    56 A    57 A    58 A    59 A    60 A    61 A                  
  1.053   1.067   1.158   1.158   1.158   1.164   1.164   1.170
 62 A    63 A    64 A    65 A    66 A    67 A    68 A    69 A                  
  1.170   1.170   1.196   1.196   1.196   1.379   1.379   1.379
 70 A    71 A    72 A    73 A    74 A    75 A    76 A    77 A                  
  1.416   1.416   1.416   1.486   1.486   1.696   1.696   1.696
 78 A    79 A    80 A    81 A    82 A    83 A    84 A    85 A                  
  1.715   1.784   1.831   1.831   1.831   1.833   1.833   1.840
 86 A    87 A    88 A    89 A    90 A    91 A    92 A    93 A                  
  1.840   1.840   1.938   1.949   1.949   1.949   2.084   2.084
 94 A    95 A    96 A    97 A    98 A    99 A   100 A   101 A                  
  2.084   2.084   2.087   2.087   2.087   2.121   2.121   2.205
102 A   103 A   104 A   105 A   106 A   107 A   108 A   109 A                  
  2.205   2.205   2.278   2.278   2.278   2.291   2.291   2.291
110 A   111 A   112 A   113 A   114 A   115 A   116 A   117 A                  
  2.291   2.372   2.372   2.372   2.470   2.470   2.484   2.484
118 A   119 A   120 A   121 A   122 A   123 A   124 A   125 A                  
  2.484   2.523   2.523   2.554   2.554   2.554   2.631   2.656
126 A   127 A   128 A   129 A   130 A   131 A   132 A   133 A                  
  2.656   2.656   2.851   2.851   2.851   2.930   2.930   2.930
134 A   135 A   136 A   137 A   138 A   139 A   140 A   141 A                  
  3.132   3.448   3.448   3.461   3.461   3.461   3.586   3.586
142 A   143 A   144 A   145 A   146 A   147 A   148 A   149 A                  
  3.586   3.589   3.676   3.676   3.676   3.709   3.709   3.762
150 A   151 A   152 A   153 A   154 A   155 A   156 A   157 A                  
  3.762   3.762   3.847   3.847   3.847   3.912   4.001   4.001
158 A   159 A   160 A   161 A   162 A   163 A   164 A   165 A                  
  4.001   4.133   4.133   4.133   4.250   4.250   4.250   4.312
166 A   167 A   168 A   169 A   170 A   171 A   172 A   173 A                  
  4.457   4.457   4.809   4.809   4.809   4.877   4.877   4.877
174 A   175 A   176 A   177 A   178 A   179 A   180 A   181 A                  
  4.929   4.954   4.954   5.284   5.284   5.437   5.437   5.437
182 A   183 A   184 A   185 A   186 A   187 A   188 A   189 A                  
  5.615   5.615   5.615   5.917   5.917   5.917   5.996   5.996
190 A   191 A   192 A   193 A   194 A   195 A   196 A   197 A                  
  5.996   6.205   6.986   6.993   6.993   6.993   7.020   7.020
198 A   199 A   200 A   201 A   202 A   203 A   204 A   205 A                  
  7.020   7.295   7.528   7.528   7.528   7.569   7.569   7.569
206 A   207 A   208 A   209 A   210 A   211 A   212 A   213 A                  
  7.958   7.958   8.004   8.095   8.095   8.095   8.279   8.279
214 A   215 A   216 A   217 A   218 A   219 A   220 A   221 A                  
  8.279   8.418   8.418   8.495   8.495   8.495   8.746   8.746
222 A   223 A   224 A   225 A   226 A   227 A   228 A   229 A                  
  8.746   8.950   9.117   9.117   9.308   9.308   9.308   9.349
230 A   231 A   232 A   233 A   234 A   235 A   236 A   237 A                  
  9.349   9.349   9.537   9.537   9.604   9.604   9.604   9.801
238 A   239 A   240 A   241 A   242 A   243 A   244 A   245 A                  
  9.866   9.866   9.866  10.074  10.074  10.074  10.299  10.299
246 A   247 A   248 A   249 A   250 A   251 A   252 A   253 A                  
 10.299  10.412  10.412  10.428  10.428  10.428  10.809  11.404
254 A   255 A   256 A   257 A   258 A   259 A   260 A   261 A                  
 11.404  11.404  12.875  14.812  14.812  14.812  20.365  20.365
262 A   263 A   264 A   265 A   266 A   267 A   268 A   269 A                  
 21.404  21.404  21.404  27.378  46.557  46.557  46.557  76.339
270 A   271 A   272 A   273 A   274 A   275 A   276 A   277 A                  
 76.339  76.339  76.362  76.362  76.362  76.399  85.984  86.638
278 A   279 A   280 A   281 A   282 A   283 A   284 A   285 A                  
 86.638  87.151  87.151  87.151 153.642 153.642 153.642 351.161
286 A   287 A   288 A   289 A   290 A   291 A   292 A   293 A                  

 Occupation and symmetry of molecular orbitals

 Point group: C1 (1 irreducible representation).

                           A     All 
 -------------------------------------
 All molecular orbitals:
  - Alpha                  293   293 
  - Beta                   293   293 
 -------------------------------------
 Alpha orbitals:
  - Frozen occupied        0     0   
  - Active occupied        5     5   
  - Active virtual         288   288 
  - Frozen virtual         0     0   
 -------------------------------------
 Beta orbitals:
  - Frozen occupied        0     0   
  - Active occupied        5     5   
  - Active virtual         288   288 
  - Frozen virtual         0     0   
 -------------------------------------

 Import integrals:   CPU 0.00 s  wall 0.00 s

 Import integrals:   CPU 9244.04 s  wall 1325.89 s

 MP2 amplitudes:   CPU 5.01 s  wall 14.64 s

Running a double precision version
           CCSD T amplitudes will be solved using DIIS.

           Start     Size      MaxIter   EConv     TConv     
           3         7         100       1.00e-06  1.00e-04  
 ------------------------------------------------------------------------------
           Energy (a.u.)   Ediff      Tdiff       Comment
 ------------------------------------------------------------------------------
           -27.21546443                           
     1     -27.23173347   1.63e-02   4.36e-01     Step took 04.32.
     2     -27.23720408   5.47e-03   5.85e-02     
     3     -27.23835784   1.15e-03   1.84e-02     
     4     -27.23903536   6.78e-04   8.17e-03     Switched to DIIS steps.
     5     -27.23908905   5.37e-05   2.05e-03     
     6     -27.23909107   2.02e-06   7.09e-04     
     7     -27.23909168   6.19e-07   2.52e-04     
     8     -27.23909182   1.36e-07   7.35e-05     
 ------------------------------------------------------------------------------
           -27.23909182                           CCSD T converged.

End of double precision

----------------------------------------
libpt (c) 2016-2018 Ilya Kaliman
Fast Coupled Cluster Triples Corrections
https://github.com/ilyak/libpt
----------------------------------------

 Starting (T) calculation...
 Using double precision libpt code
 (T) calculation completed in 120 sec
 (T) energy is -0.0066233377

 SCF energy                 = -26.98936818
 MP2 energy                 = -27.21546443
 CCSD correlation energy     =  -0.24972364
 CCSD total energy           = -27.23909182
 CCSD(T) correlation energy =  -0.00662334
 CCSD(T) total energy       = -27.24571516

 CCSD  T1^2 = 0.0023  T2^2 = 0.0935  Leading amplitudes:

 Amplitude    Orbitals with energies
 -0.0090       5 (A) A                   ->    37 (A) A                   
              -0.1908                          0.6016                     
 -0.0090       5 (A) B                   ->    37 (A) B                   
              -0.1908                          0.6016                     
  0.0090       4 (A) A                   ->    36 (A) A                   
              -0.1908                          0.6016                     
  0.0090       4 (A) B                   ->    36 (A) B                   
              -0.1908                          0.6016                     
  0.0090       3 (A) A                   ->    35 (A) A                   
              -0.1908                          0.6016                     
  0.0090       3 (A) B                   ->    35 (A) B                   
              -0.1908                          0.6016                     

 Amplitude    Orbitals with energies
 -0.0162       5 (A) A       5 (A) B     ->    41 (A) A      41 (A) B     
              -0.1908       -0.1908            0.7044        0.7044       
  0.0162       5 (A) A       5 (A) B     ->    41 (A) B      41 (A) A     
              -0.1908       -0.1908            0.7044        0.7044       
  0.0162       5 (A) B       5 (A) A     ->    41 (A) A      41 (A) B     
              -0.1908       -0.1908            0.7044        0.7044       
 -0.0162       5 (A) B       5 (A) A     ->    41 (A) B      41 (A) A     
              -0.1908       -0.1908            0.7044        0.7044       

 CCSD calculation:   CPU 7146.92 s  wall 2062.38 s

 Total ccman2 time:   CPU 16498.64 s  wall 3579.06 s

 
 --------------------------------------------------------------
 
                    Orbital Energies (a.u.)
 --------------------------------------------------------------
 
 Alpha MOs
 -- Occupied --
 -7.288  -0.452  -0.191  -0.191  -0.191
 -- Virtual --
  0.132   0.138   0.138   0.138   0.186   0.186   0.186   0.242
  0.253   0.253   0.293   0.293   0.293   0.370   0.374   0.374
  0.374   0.418   0.418   0.418   0.441   0.441   0.441   0.478
  0.478   0.484   0.512   0.512   0.512   0.602   0.602   0.602
  0.654   0.704   0.704   0.704   0.754   0.754   0.754   0.772
  0.772   0.772   0.801   0.801   0.841   0.893   0.893   0.893
  0.909   0.915   0.915   1.012   1.012   1.012   1.053   1.053
  1.053   1.067   1.158   1.158   1.158   1.164   1.164   1.170
  1.170   1.170   1.196   1.196   1.196   1.379   1.379   1.379
  1.416   1.416   1.416   1.486   1.486   1.696   1.696   1.696
  1.715   1.784   1.831   1.831   1.831   1.833   1.833   1.840
  1.840   1.840   1.938   1.949   1.949   1.949   2.084   2.084
  2.084   2.084   2.087   2.087   2.087   2.121   2.121   2.205
  2.205   2.205   2.278   2.278   2.278   2.291   2.291   2.291
  2.291   2.372   2.372   2.372   2.470   2.470   2.484   2.484
  2.484   2.523   2.523   2.554   2.554   2.554   2.631   2.656
  2.656   2.656   2.851   2.851   2.851   2.930   2.930   2.930
  3.132   3.448   3.448   3.461   3.461   3.461   3.586   3.586
  3.586   3.589   3.676   3.676   3.676   3.709   3.709   3.762
  3.762   3.762   3.847   3.847   3.847   3.912   4.001   4.001
  4.001   4.133   4.133   4.133   4.250   4.250   4.250   4.312
  4.457   4.457   4.809   4.809   4.809   4.877   4.877   4.877
  4.929   4.954   4.954   5.284   5.284   5.437   5.437   5.437
  5.615   5.615   5.615   5.917   5.917   5.917   5.996   5.996
  5.996   6.205   6.986   6.993   6.993   6.993   7.020   7.020
  7.020   7.295   7.528   7.528   7.528   7.569   7.569   7.569
  7.958   7.958   8.004   8.095   8.095   8.095   8.279   8.279
  8.279   8.418   8.418   8.495   8.495   8.495   8.746   8.746
  8.746   8.950   9.117   9.117   9.308   9.308   9.308   9.349
  9.349   9.349   9.537   9.537   9.604   9.604   9.604   9.801
  9.866   9.866   9.866  10.074  10.074  10.074  10.299  10.299
 10.299  10.412  10.412  10.428  10.428  10.428  10.809  11.404
 11.404  11.404  12.875  14.812  14.812  14.812  20.365  20.365
 21.404  21.404  21.404  27.378  46.557  46.557  46.557  76.339
 76.339  76.339  76.362  76.362  76.362  76.399  85.984  86.638
 86.638  87.151  87.151  87.151 153.642 153.642 153.642 351.161
 
 Beta MOs
 -- Occupied --
 -7.288  -0.452  -0.191  -0.191  -0.191
 -- Virtual --
  0.132   0.138   0.138   0.138   0.186   0.186   0.186   0.242
  0.253   0.253   0.293   0.293   0.293   0.370   0.374   0.374
  0.374   0.418   0.418   0.418   0.441   0.441   0.441   0.478
  0.478   0.484   0.512   0.512   0.512   0.602   0.602   0.602
  0.654   0.704   0.704   0.704   0.754   0.754   0.754   0.772
  0.772   0.772   0.801   0.801   0.841   0.893   0.893   0.893
  0.909   0.915   0.915   1.012   1.012   1.012   1.053   1.053
  1.053   1.067   1.158   1.158   1.158   1.164   1.164   1.170
  1.170   1.170   1.196   1.196   1.196   1.379   1.379   1.379
  1.416   1.416   1.416   1.486   1.486   1.696   1.696   1.696
  1.715   1.784   1.831   1.831   1.831   1.833   1.833   1.840
  1.840   1.840   1.938   1.949   1.949   1.949   2.084   2.084
  2.084   2.084   2.087   2.087   2.087   2.121   2.121   2.205
  2.205   2.205   2.278   2.278   2.278   2.291   2.291   2.291
  2.291   2.372   2.372   2.372   2.470   2.470   2.484   2.484
  2.484   2.523   2.523   2.554   2.554   2.554   2.631   2.656
  2.656   2.656   2.851   2.851   2.851   2.930   2.930   2.930
  3.132   3.448   3.448   3.461   3.461   3.461   3.586   3.586
  3.586   3.589   3.676   3.676   3.676   3.709   3.709   3.762
  3.762   3.762   3.847   3.847   3.847   3.912   4.001   4.001
  4.001   4.133   4.133   4.133   4.250   4.250   4.250   4.312
  4.457   4.457   4.809   4.809   4.809   4.877   4.877   4.877
  4.929   4.954   4.954   5.284   5.284   5.437   5.437   5.437
  5.615   5.615   5.615   5.917   5.917   5.917   5.996   5.996
  5.996   6.205   6.986   6.993   6.993   6.993   7.020   7.020
  7.020   7.295   7.528   7.528   7.528   7.569   7.569   7.569
  7.958   7.958   8.004   8.095   8.095   8.095   8.279   8.279
  8.279   8.418   8.418   8.495   8.495   8.495   8.746   8.746
  8.746   8.950   9.117   9.117   9.308   9.308   9.308   9.349
  9.349   9.349   9.537   9.537   9.604   9.604   9.604   9.801
  9.866   9.866   9.866  10.074  10.074  10.074  10.299  10.299
 10.299  10.412  10.412  10.428  10.428  10.428  10.809  11.404
 11.404  11.404  12.875  14.812  14.812  14.812  20.365  20.365
 21.404  21.404  21.404  27.378  46.557  46.557  46.557  76.339
 76.339  76.339  76.362  76.362  76.362  76.399  85.984  86.638
 86.638  87.151  87.151  87.151 153.642 153.642 153.642 351.161
 --------------------------------------------------------------
 
          Ground-State Mulliken Net Atomic Charges

     Atom                 Charge (a.u.)    Spin (a.u.)
  --------------------------------------------------------
      1 B                    -0.413399       0.000000
      2 H                    -0.146650       0.000000
      3 H                    -0.146650       0.000000
      4 H                    -0.146650       0.000000
      5 H                    -0.146650       0.000000
  --------------------------------------------------------
  Sum of atomic charges =    -1.000000
  Sum of spin   charges =     0.000000

 -----------------------------------------------------------------
                    Cartesian Multipole Moments
 -----------------------------------------------------------------
    Charge (ESU x 10^10)
                -4.8032
    Dipole Moment (Debye)
         X      -0.0000      Y       0.0000      Z      -0.0000
       Tot       0.0000
    Quadrupole Moments (Debye-Ang)
        XX     -15.7007     XY      -0.0000     YY     -15.7007
        XZ       0.0000     YZ      -0.0000     ZZ     -15.7007
    Octopole Moments (Debye-Ang^2)
       XXX      -0.0000    XXY       0.0000    XYY      -0.0000
       YYY       0.0000    XXZ      -0.0000    XYZ      -2.2363
       YYZ      -0.0000    XZZ      -0.0000    YZZ       0.0000
       ZZZ      -0.0000
    Hexadecapole Moments (Debye-Ang^3)
      XXXX     -44.4401   XXXY       0.0000   XXYY     -15.5237
      XYYY       0.0000   YYYY     -44.4401   XXXZ       0.0000
      XXYZ      -0.0000   XYYZ       0.0000   YYYZ      -0.0000
      XXZZ     -15.5237   XYZZ       0.0000   YYZZ     -15.5237
      XZZZ       0.0000   YZZZ      -0.0000   ZZZZ     -44.4401
 -----------------------------------------------------------------
Archival summary:
1\1\n0044.mhg0\SP\ProcedureUnspecified\BasisUnspecified\14(1-,1)\yhljason\MonSep2102:10:522020MonSep2102:10:522020\0\\#,ProcedureUnspecified,BasisUnspecified,\\-1,1\B\H,1,1.23391\H,1,1.23391,2,109.471\H,1,1.23391,2,109.471,3,120,0\H,1,1.23391,2,109.471,3,-120,0\\HF=-26.9893682\\@

 Total job time:  3955.60s(wall), 22082.30s(cpu) 
 Mon Sep 21 02:10:52 2020

        *************************************************************
        *                                                           *
        *  Thank you very much for using Q-Chem.  Have a nice day.  *
        *                                                           *
        *************************************************************


 
User input: 2 of 3 
 
Q-Chem Developer Version!
                  Welcome to Q-Chem
     A Quantum Leap Into The Future Of Chemistry


 Q-Chem 5.1, Q-Chem, Inc., Pleasanton, CA (2018)

 Yihan Shao,  Zhengting Gan,  E. Epifanovsky,  A. T. B. Gilbert,  M. Wormit,  
 J. Kussmann,  A. W. Lange,  A. Behn,  Jia Deng,  Xintian Feng,  D. Ghosh,  
 M. Goldey,  P. R. Horn,  L. D. Jacobson,  I. Kaliman,  T. Kus,  A. Landau,  
 Jie Liu,  E. I. Proynov,  R. M. Richard,  R. P. Steele,  E. J. Sundstrom,  
 H. L. Woodcock III,  P. M. Zimmerman,  D. Zuev,  B. Albrecht,  E. Alguire,  
 S. A. Baeppler,  D. Barton,  Z. Benda,  Y. A. Bernard,  E. J. Berquist,  
 K. B. Bravaya,  H. Burton,  D. Casanova,  Chun-Min Chang,  Yunqing Chen,  
 A. Chien,  K. D. Closser,  M. P. Coons,  S. Coriani,  S. Dasgupta,  
 A. L. Dempwolff,  M. Diedenhofen,  Hainam Do,  R. G. Edgar,  Po-Tung Fang,  
 S. Faraji,  S. Fatehi,  Qingguo Feng,  K. D. Fenk,  J. Fosso-Tande,  
 Qinghui Ge,  A. Ghysels,  G. Gidofalvi,  J. Gomes,  J. Gonthier,  A. Gunina,  
 D. Hait,  M. W. D. Hanson-Heine,  P. H. P. Harbach,  A. W. Hauser,  
 J. E. Herr,  E. G. Hohenstein,  Z. C. Holden,  Kerwin Hui,  B. C. Huynh,  
 T.-C. Jagau,  Hyunjun Ji,  B. Kaduk,  K. Khistyaev,  Jaehoon Kim,  
 P. Klunzinger,  K. Koh,  D. Kosenkov,  L. Koulias,  T. Kowalczyk,  
 C. M. Krauter,  A. Kunitsa,  Ka Un Lao,  A. Laurent,  K. V. Lawler,  
 Joonho Lee,  D. Lefrancois,  S. Lehtola,  D. S. Levine,  Yi-Pei Li,  
 You-Sheng Lin,  Fenglai Liu,  E. Livshits,  A. Luenser,  P. Manohar,  
 E. Mansoor,  S. F. Manzer,  Shan-Ping Mao,  Yuezhi Mao,  N. Mardirossian,  
 A. V. Marenich,  T. Markovich,  L. A. Martinez-Martinez,  S. A. Maurer,  
 N. J. Mayhall,  S. C. McKenzie,  J.-M. Mewes,  A. F. Morrison,  
 J. W. Mullinax,  K. Nanda,  T. S. Nguyen-Beck,  R. Olivares-Amaya,  
 J. A. Parkhill,  T. M. Perrine,  F. Plasser,  P. Pokhilko,  S. Prager,  
 A. Prociuk,  E. Ramos,  D. R. Rehn,  F. Rob,  M. Schneider,  N. Sergueev,  
 S. M. Sharada,  S. Sharma,  D. W. Small,  T. Stauch,  T. Stein,  
 Yu-Chuan Su,  A. J. W. Thom,  A. Tkatchenko,  T. Tsuchimochi,  N. M. Tubman,  
 L. Vogt,  M. L. Vidal,  O. Vydrov,  M. A. Watson,  J. Wenzel,  
 M. de Wergifosse,  T. A. Wesolowski,  A. White,  J. Witte,  A. Yamada,  
 Jun Yang,  K. Yao,  S. Yeganeh,  S. R. Yost,  Zhi-Qiang You,  A. Zech,  
 Igor Ying Zhang,  Xing Zhang,  Yan Zhao,  Ying Zhu,  B. R. Brooks,  
 G. K. L. Chan,  C. J. Cramer,  M. S. Gordon,  W. J. Hehre,  A. Klamt,  
 M. W. Schmidt,  C. D. Sherrill,  D. G. Truhlar,  A. Aspuru-Guzik,  R. Baer,  
 A. T. Bell,  N. A. Besley,  Jeng-Da Chai,  A. E. DePrince, III,  
 R. A. DiStasio Jr.,  A. Dreuw,  B. D. Dunietz,  T. R. Furlani,  
 Chao-Ping Hsu,  Yousung Jung,  Jing Kong,  D. S. Lambrecht,  WanZhen Liang,  
 C. Ochsenfeld,  V. A. Rassolov,  L. V. Slipchenko,  J. E. Subotnik,  
 T. Van Voorhis,  J. M. Herbert,  A. I. Krylov,  P. M. W. Gill,  M. Head-Gordon

 Contributors to earlier versions of Q-Chem not listed above: 
 R. D. Adamson,  B. Austin,  J. Baker,  G. J. O. Beran,  K. Brandhorst,  
 S. T. Brown,  E. F. C. Byrd,  A. K. Chakraborty,  C.-L. Cheng,  
 Siu Hung Chien,  D. M. Chipman,  D. L. Crittenden,  H. Dachsel,  
 R. J. Doerksen,  A. D. Dutoi,  L. Fusti-Molnar,  W. A. Goddard III,  
 A. Golubeva-Zadorozhnaya,  S. R. Gwaltney,  G. Hawkins,  A. Heyden,  
 S. Hirata,  G. Kedziora,  F. J. Keil,  C. Kelley,  Jihan Kim,  R. A. King,  
 R. Z. Khaliullin,  P. P. Korambath,  W. Kurlancheek,  A. M. Lee,  M. S. Lee,  
 S. V. Levchenko,  Ching Yeh Lin,  D. Liotard,  R. C. Lochan,  I. Lotan,  
 P. E. Maslen,  N. Nair,  D. P. O'Neill,  D. Neuhauser,  E. Neuscamman,  
 C. M. Oana,  R. Olson,  B. Peters,  R. Peverati,  P. A. Pieniazek,  
 Y. M. Rhee,  J. Ritchie,  M. A. Rohrdanz,  E. Rosta,  N. J. Russ,  
 H. F. Schaefer III,  N. E. Schultz,  N. Shenvi,  A. C. Simmonett,  A. Sodt,  
 D. Stuck,  K. S. Thanthiriwatte,  V. Vanovschi,  Tao Wang,  A. Warshel,  
 C. F. Williams,  Q. Wu,  X. Xu,  W. Zhang

 Please cite Q-Chem as follows:
 Y. Shao et al., Mol. Phys. 113, 184-215 (2015)
 DOI: 10.1080/00268976.2014.952696

 Q-Chem 5.1.1 for Intel X86 EM64T Linux

 Parts of Q-Chem use Armadillo 8.300.2 (Tropical Shenanigans).
 http://arma.sourceforge.net/

 Q-Chem begins on Mon Sep 21 02:10:52 2020  

Host: n0044.mhg0
0

     Scratch files written to /local/scratch/users/yhljason/BH4-_ccsdT_aug-cc-pcVQZ.inp20200921010454//
The previous job contains 0 fragments, simply inherited here
Input Ideriv = 0
Curr. Ideriv = -1
Max.  Ideriv = 0

Checking the input file for inconsistencies... 	...done.

--------------------------------------------------------------
User input:
--------------------------------------------------------------
$molecule
read
$end

$rem

jobtype sp
method CCSD(T)
xc_grid 000099000590
basis aug-cc-pcVQZ
max_scf_cycles 200
thresh 14
scf_convergence 8
mem_total 128000
cc_memory 96000
cc_backend xm
mem_static 1500
symmetry false
sym_ignore true
scf_guess read
unrestricted true
scf_algorithm gdm
n_frozen_core 0
$end

$multipole_field
Z 0.0001
$end


--------------------------------------------------------------
 ----------------------------------------------------------------
             Standard Nuclear Orientation (Angstroms)
    I     Atom           X                Y                Z
 ----------------------------------------------------------------
    1      B       0.0000000000     0.0000000000     0.0000000000
    2      H       0.7123986049     0.7123986049     0.7123986049
    3      H      -0.7123986049    -0.7123986049     0.7123986049
    4      H      -0.7123986049     0.7123986049    -0.7123986049
    5      H       0.7123986049    -0.7123986049    -0.7123986049
 ----------------------------------------------------------------
 Nuclear Repulsion Energy =    10.1529767674 hartrees
 There are        5 alpha and        5 beta electrons
 Requested basis set is aug-cc-pCVQZ
 There are 85 shells and 293 basis functions
 Total memory of 128000MB is distributed as follows: 
   QALLOC including MEM_STATIC uses 32000MB
   MEM_STATIC is set to 1500MB
   CCMAN JOB total memory use is  96000MB
 Warning: actual memory use might exceed 128000MB

 Total QAlloc Memory Limit  32000 MB
 Mega-Array Size      1467 MB
 MEM_STATIC part      1500 MB

                       Distance Matrix (Angstroms)
             B (  1)   H (  2)   H (  3)   H (  4)
   H (  2)  1.233911
   H (  3)  1.233911  2.014968
   H (  4)  1.233911  2.014968  2.014968
   H (  5)  1.233911  2.014968  2.014968  2.014968
 
 Applying Cartesian multipole field
    Component          Value
    ---------          -----
     (0,0,1)        1.00000E-04
 A cutoff of  1.0D-14 yielded   3655 shell pairs
 There are     43647 function pairs (     65712 Cartesian)
 
 -------------------------------------------------------
 OpenMP Integral Computing Module                       
 Release: version 1.0, May 2013, Q-Chem Inc. Pittsburgh 
 -------------------------------------------------------
 Integral Job Info:
 Integral job number is                      11
 Integral operator is                         1
 short-range coefficients                     0
 long-range coefficients              100000000
 Omega coefficients                           0
 if combine SR and LR in K                    0
 Integral screening is                        0
 Integral computing path is                   2
 max size of driver memory is           3200000
 size of driver memory is               1704330
 size of scratch memory is             18511652
 max col of scratch BK array              50625
 max len of scratch array in speh3         2114
 max len of scratch index in speh4           50
 max int batch size is                      520
 min int batch size is                       52
 fixed nKL is                                52
 max L of basis functions is                  4
 order of int derivative is                   0
 number of shells is                         85
 number of basis is                         359
 number of cartesian basis is               359
 number of contracted shell pairs          3655
 number of primitive shell pairs           6095
 maxK2 (contraction) of shell pair           81
 max number of K2 of shell pair               1
 max number of CS2 of shell pair            537
 max number of PS2 of shell pair            537
 mem total for path MDJ                  736752
 -------------------------------------------------------
 Smallest overlap matrix eigenvalue = 3.08E-06
 Guess MOs from SCF MO coefficient file

 -----------------------------------------------------------------------
  General SCF calculation program by
  Eric Jon Sundstrom, Paul Horn, Yuezhi Mao, Dmitri Zuev, Alec White,
  David Stuck, Shaama M.S., Shane Yost, Joonho Lee, David Small,
  Daniel Levine, Susi Lehtola, Hugh Burton, Evgeny Epifanovsky
 -----------------------------------------------------------------------
 Hartree-Fock
 using 16 threads for integral computing
 -------------------------------------------------------
 OpenMP Integral computing Module                
 Release: version 2.0, May 2017, Q-Chem Inc. Pleasanton 
 -------------------------------------------------------
 A unrestricted SCF calculation will be
 performed using GDM
 SCF converges when RMS gradient is below 1.0e-08
 ---------------------------------------
  Cycle       Energy        RMS Gradient
 ---------------------------------------
    1     -26.9893681815      1.28e-04   Normal BFGS step
    2     -26.9893683402      3.66e-05   Normal BFGS step
    3     -26.9893683571      7.72e-06   Normal BFGS step
    4     -26.9893683578      2.23e-06   Normal BFGS step
    5     -26.9893683579      5.24e-07   Normal BFGS step
    6     -26.9893683579      1.08e-07   Normal BFGS step
    7     -26.9893683579      1.30e-08   Normal BFGS step
    8     -26.9893683579      3.49e-09  Convergence criterion met
 ---------------------------------------
 SCF time:   CPU 1344.20s  wall 84.00s 
<S^2> =          0.000000000
 SCF   energy in the final basis set =      -26.9893683579
 Total energy in the final basis set =      -26.9893683579


 ------------------------------------------------------------------------------

   CCMAN2: suite of methods based on coupled cluster
           and equation of motion theories.

   Components:
   * libvmm-1.3-trunk
     by Evgeny Epifanovsky, Ilya Kaliman.
   * libtensor-2.5-trunk
     by Evgeny Epifanovsky, Michael Wormit, Dmitry Zuev, Sam Manzer, 
        Ilya Kaliman.
   * libcc-2.5-trunk
     by Evgeny Epifanovsky, Arik Landau, Tomasz Kus, Kirill Khistyaev, 
        Dmitry Zuev, Prashant Manohar, Xintian Feng, Anna Krylov, 
        Matthew Goldey, Alec White, Thomas Jagau, Kaushik Nanda, 
        Anastasia Gunina, Alexander Kunitsa, Joonho Lee.

   CCMAN original authors:
   Anna I. Krylov, C. David Sherrill, Steven R. Gwaltney,
   Edward F. C. Byrd (2000)
   Sergey V. Levchenko, Lyudmila V. Slipchenko, Tao Wang,
   Ana-Maria C. Cristian (2003)
   Piotr A. Pieniazek, C. Melania Oana, Evgeny Epifanovsky (2007)
   Prashant Manohar (2009)

 ------------------------------------------------------------------------------


 Calculation will run on 16 cores using libxm for tensor contractions

 ------------------------------------------------------------------------------
Libxm Tensor Library
Copyright (c) 2014-2018 Ilya Kaliman
https://github.com/ilyak/libxm
Reference: https://dx.doi.org/10.1002/jcc.24713
 ------------------------------------------------------------------------------

 
 Alpha MOs, Unrestricted
 -- Occupied --                  
 -7.288  -0.452  -0.191  -0.191  -0.191
  1 A     2 A     3 A     4 A     5 A                                          
 -- Virtual --                   
  0.132   0.138   0.138   0.139   0.186   0.186   0.186   0.242
  6 A     7 A     8 A     9 A    10 A    11 A    12 A    13 A                  
  0.253   0.253   0.292   0.293   0.293   0.370   0.373   0.374
 14 A    15 A    16 A    17 A    18 A    19 A    20 A    21 A                  
  0.374   0.418   0.418   0.418   0.441   0.441   0.442   0.478
 22 A    23 A    24 A    25 A    26 A    27 A    28 A    29 A                  
  0.478   0.484   0.512   0.512   0.512   0.602   0.602   0.602
 30 A    31 A    32 A    33 A    34 A    35 A    36 A    37 A                  
  0.654   0.704   0.704   0.704   0.754   0.754   0.754   0.772
 38 A    39 A    40 A    41 A    42 A    43 A    44 A    45 A                  
  0.772   0.772   0.801   0.801   0.841   0.893   0.893   0.893
 46 A    47 A    48 A    49 A    50 A    51 A    52 A    53 A                  
  0.909   0.915   0.915   1.012   1.012   1.012   1.053   1.053
 54 A    55 A    56 A    57 A    58 A    59 A    60 A    61 A                  
  1.053   1.067   1.158   1.158   1.158   1.164   1.164   1.170
 62 A    63 A    64 A    65 A    66 A    67 A    68 A    69 A                  
  1.170   1.170   1.196   1.196   1.196   1.379   1.379   1.379
 70 A    71 A    72 A    73 A    74 A    75 A    76 A    77 A                  
  1.416   1.416   1.416   1.486   1.486   1.696   1.696   1.696
 78 A    79 A    80 A    81 A    82 A    83 A    84 A    85 A                  
  1.715   1.784   1.831   1.831   1.831   1.833   1.833   1.840
 86 A    87 A    88 A    89 A    90 A    91 A    92 A    93 A                  
  1.840   1.840   1.938   1.949   1.949   1.949   2.084   2.084
 94 A    95 A    96 A    97 A    98 A    99 A   100 A   101 A                  
  2.084   2.084   2.087   2.087   2.087   2.121   2.121   2.205
102 A   103 A   104 A   105 A   106 A   107 A   108 A   109 A                  
  2.205   2.205   2.278   2.278   2.278   2.291   2.291   2.291
110 A   111 A   112 A   113 A   114 A   115 A   116 A   117 A                  
  2.291   2.372   2.372   2.372   2.470   2.470   2.484   2.484
118 A   119 A   120 A   121 A   122 A   123 A   124 A   125 A                  
  2.484   2.523   2.523   2.554   2.554   2.554   2.631   2.656
126 A   127 A   128 A   129 A   130 A   131 A   132 A   133 A                  
  2.656   2.656   2.851   2.851   2.851   2.930   2.930   2.930
134 A   135 A   136 A   137 A   138 A   139 A   140 A   141 A                  
  3.132   3.448   3.448   3.461   3.461   3.462   3.586   3.586
142 A   143 A   144 A   145 A   146 A   147 A   148 A   149 A                  
  3.586   3.589   3.675   3.676   3.676   3.709   3.709   3.762
150 A   151 A   152 A   153 A   154 A   155 A   156 A   157 A                  
  3.762   3.762   3.846   3.847   3.847   3.912   4.001   4.001
158 A   159 A   160 A   161 A   162 A   163 A   164 A   165 A                  
  4.001   4.133   4.133   4.133   4.250   4.250   4.250   4.312
166 A   167 A   168 A   169 A   170 A   171 A   172 A   173 A                  
  4.457   4.457   4.809   4.809   4.809   4.877   4.877   4.877
174 A   175 A   176 A   177 A   178 A   179 A   180 A   181 A                  
  4.929   4.954   4.954   5.284   5.284   5.437   5.437   5.437
182 A   183 A   184 A   185 A   186 A   187 A   188 A   189 A                  
  5.615   5.615   5.615   5.917   5.917   5.917   5.996   5.996
190 A   191 A   192 A   193 A   194 A   195 A   196 A   197 A                  
  5.996   6.205   6.986   6.993   6.993   6.994   7.020   7.020
198 A   199 A   200 A   201 A   202 A   203 A   204 A   205 A                  
  7.021   7.295   7.528   7.528   7.528   7.569   7.569   7.569
206 A   207 A   208 A   209 A   210 A   211 A   212 A   213 A                  
  7.958   7.958   8.004   8.095   8.095   8.095   8.279   8.279
214 A   215 A   216 A   217 A   218 A   219 A   220 A   221 A                  
  8.279   8.418   8.418   8.495   8.495   8.495   8.746   8.746
222 A   223 A   224 A   225 A   226 A   227 A   228 A   229 A                  
  8.746   8.950   9.117   9.117   9.308   9.308   9.308   9.349
230 A   231 A   232 A   233 A   234 A   235 A   236 A   237 A                  
  9.349   9.349   9.537   9.537   9.604   9.604   9.604   9.801
238 A   239 A   240 A   241 A   242 A   243 A   244 A   245 A                  
  9.866   9.866   9.866  10.074  10.074  10.074  10.299  10.299
246 A   247 A   248 A   249 A   250 A   251 A   252 A   253 A                  
 10.299  10.412  10.412  10.428  10.428  10.428  10.809  11.404
254 A   255 A   256 A   257 A   258 A   259 A   260 A   261 A                  
 11.404  11.404  12.875  14.812  14.812  14.812  20.365  20.365
262 A   263 A   264 A   265 A   266 A   267 A   268 A   269 A                  
 21.404  21.404  21.404  27.378  46.557  46.557  46.557  76.339
270 A   271 A   272 A   273 A   274 A   275 A   276 A   277 A                  
 76.339  76.339  76.362  76.362  76.362  76.399  85.984  86.638
278 A   279 A   280 A   281 A   282 A   283 A   284 A   285 A                  
 86.638  87.151  87.151  87.151 153.642 153.642 153.642 351.161
286 A   287 A   288 A   289 A   290 A   291 A   292 A   293 A                  
 
 Beta MOs, Unrestricted
 -- Occupied --                  
 -7.288  -0.452  -0.191  -0.191  -0.191
  1 A     2 A     3 A     4 A     5 A                                          
 -- Virtual --                   
  0.132   0.138   0.138   0.139   0.186   0.186   0.186   0.242
  6 A     7 A     8 A     9 A    10 A    11 A    12 A    13 A                  
  0.253   0.253   0.292   0.293   0.293   0.370   0.373   0.374
 14 A    15 A    16 A    17 A    18 A    19 A    20 A    21 A                  
  0.374   0.418   0.418   0.418   0.441   0.441   0.442   0.478
 22 A    23 A    24 A    25 A    26 A    27 A    28 A    29 A                  
  0.478   0.484   0.512   0.512   0.512   0.602   0.602   0.602
 30 A    31 A    32 A    33 A    34 A    35 A    36 A    37 A                  
  0.654   0.704   0.704   0.704   0.754   0.754   0.754   0.772
 38 A    39 A    40 A    41 A    42 A    43 A    44 A    45 A                  
  0.772   0.772   0.801   0.801   0.841   0.893   0.893   0.893
 46 A    47 A    48 A    49 A    50 A    51 A    52 A    53 A                  
  0.909   0.915   0.915   1.012   1.012   1.012   1.053   1.053
 54 A    55 A    56 A    57 A    58 A    59 A    60 A    61 A                  
  1.053   1.067   1.158   1.158   1.158   1.164   1.164   1.170
 62 A    63 A    64 A    65 A    66 A    67 A    68 A    69 A                  
  1.170   1.170   1.196   1.196   1.196   1.379   1.379   1.379
 70 A    71 A    72 A    73 A    74 A    75 A    76 A    77 A                  
  1.416   1.416   1.416   1.486   1.486   1.696   1.696   1.696
 78 A    79 A    80 A    81 A    82 A    83 A    84 A    85 A                  
  1.715   1.784   1.831   1.831   1.831   1.833   1.833   1.840
 86 A    87 A    88 A    89 A    90 A    91 A    92 A    93 A                  
  1.840   1.840   1.938   1.949   1.949   1.949   2.084   2.084
 94 A    95 A    96 A    97 A    98 A    99 A   100 A   101 A                  
  2.084   2.084   2.087   2.087   2.087   2.121   2.121   2.205
102 A   103 A   104 A   105 A   106 A   107 A   108 A   109 A                  
  2.205   2.205   2.278   2.278   2.278   2.291   2.291   2.291
110 A   111 A   112 A   113 A   114 A   115 A   116 A   117 A                  
  2.291   2.372   2.372   2.372   2.470   2.470   2.484   2.484
118 A   119 A   120 A   121 A   122 A   123 A   124 A   125 A                  
  2.484   2.523   2.523   2.554   2.554   2.554   2.631   2.656
126 A   127 A   128 A   129 A   130 A   131 A   132 A   133 A                  
  2.656   2.656   2.851   2.851   2.851   2.930   2.930   2.930
134 A   135 A   136 A   137 A   138 A   139 A   140 A   141 A                  
  3.132   3.448   3.448   3.461   3.461   3.462   3.586   3.586
142 A   143 A   144 A   145 A   146 A   147 A   148 A   149 A                  
  3.586   3.589   3.675   3.676   3.676   3.709   3.709   3.762
150 A   151 A   152 A   153 A   154 A   155 A   156 A   157 A                  
  3.762   3.762   3.846   3.847   3.847   3.912   4.001   4.001
158 A   159 A   160 A   161 A   162 A   163 A   164 A   165 A                  
  4.001   4.133   4.133   4.133   4.250   4.250   4.250   4.312
166 A   167 A   168 A   169 A   170 A   171 A   172 A   173 A                  
  4.457   4.457   4.809   4.809   4.809   4.877   4.877   4.877
174 A   175 A   176 A   177 A   178 A   179 A   180 A   181 A                  
  4.929   4.954   4.954   5.284   5.284   5.437   5.437   5.437
182 A   183 A   184 A   185 A   186 A   187 A   188 A   189 A                  
  5.615   5.615   5.615   5.917   5.917   5.917   5.996   5.996
190 A   191 A   192 A   193 A   194 A   195 A   196 A   197 A                  
  5.996   6.205   6.986   6.993   6.993   6.994   7.020   7.020
198 A   199 A   200 A   201 A   202 A   203 A   204 A   205 A                  
  7.021   7.295   7.528   7.528   7.528   7.569   7.569   7.569
206 A   207 A   208 A   209 A   210 A   211 A   212 A   213 A                  
  7.958   7.958   8.004   8.095   8.095   8.095   8.279   8.279
214 A   215 A   216 A   217 A   218 A   219 A   220 A   221 A                  
  8.279   8.418   8.418   8.495   8.495   8.495   8.746   8.746
222 A   223 A   224 A   225 A   226 A   227 A   228 A   229 A                  
  8.746   8.950   9.117   9.117   9.308   9.308   9.308   9.349
230 A   231 A   232 A   233 A   234 A   235 A   236 A   237 A                  
  9.349   9.349   9.537   9.537   9.604   9.604   9.604   9.801
238 A   239 A   240 A   241 A   242 A   243 A   244 A   245 A                  
  9.866   9.866   9.866  10.074  10.074  10.074  10.299  10.299
246 A   247 A   248 A   249 A   250 A   251 A   252 A   253 A                  
 10.299  10.412  10.412  10.428  10.428  10.428  10.809  11.404
254 A   255 A   256 A   257 A   258 A   259 A   260 A   261 A                  
 11.404  11.404  12.875  14.812  14.812  14.812  20.365  20.365
262 A   263 A   264 A   265 A   266 A   267 A   268 A   269 A                  
 21.404  21.404  21.404  27.378  46.557  46.557  46.557  76.339
270 A   271 A   272 A   273 A   274 A   275 A   276 A   277 A                  
 76.339  76.339  76.362  76.362  76.362  76.399  85.984  86.638
278 A   279 A   280 A   281 A   282 A   283 A   284 A   285 A                  
 86.638  87.151  87.151  87.151 153.642 153.642 153.642 351.161
286 A   287 A   288 A   289 A   290 A   291 A   292 A   293 A                  

 Occupation and symmetry of molecular orbitals

 Point group: C1 (1 irreducible representation).

                           A     All 
 -------------------------------------
 All molecular orbitals:
  - Alpha                  293   293 
  - Beta                   293   293 
 -------------------------------------
 Alpha orbitals:
  - Frozen occupied        0     0   
  - Active occupied        5     5   
  - Active virtual         288   288 
  - Frozen virtual         0     0   
 -------------------------------------
 Beta orbitals:
  - Frozen occupied        0     0   
  - Active occupied        5     5   
  - Active virtual         288   288 
  - Frozen virtual         0     0   
 -------------------------------------

 Import integrals:   CPU 0.00 s  wall 0.00 s

 Import integrals:   CPU 9087.62 s  wall 1338.97 s

 MP2 amplitudes:   CPU 5.00 s  wall 12.84 s

Running a double precision version
           CCSD T amplitudes will be solved using DIIS.

           Start     Size      MaxIter   EConv     TConv     
           3         7         100       1.00e-06  1.00e-04  
 ------------------------------------------------------------------------------
           Energy (a.u.)   Ediff      Tdiff       Comment
 ------------------------------------------------------------------------------
           -27.21546462                           
     1     -27.23173366   1.63e-02   4.36e-01     Step took 04.28.
     2     -27.23720426   5.47e-03   5.85e-02     
     3     -27.23835803   1.15e-03   1.84e-02     
     4     -27.23903555   6.78e-04   8.17e-03     Switched to DIIS steps.
     5     -27.23908924   5.37e-05   2.05e-03     
     6     -27.23909125   2.02e-06   7.09e-04     
     7     -27.23909187   6.19e-07   2.52e-04     
     8     -27.23909201   1.36e-07   7.35e-05     
 ------------------------------------------------------------------------------
           -27.23909201                           CCSD T converged.

End of double precision

----------------------------------------
libpt (c) 2016-2018 Ilya Kaliman
Fast Coupled Cluster Triples Corrections
https://github.com/ilyak/libpt
----------------------------------------

 Starting (T) calculation...
 Using double precision libpt code
 (T) calculation completed in 118 sec
 (T) energy is -0.0066233413

 SCF energy                 = -26.98936836
 MP2 energy                 = -27.21546462
 CCSD correlation energy     =  -0.24972365
 CCSD total energy           = -27.23909201
 CCSD(T) correlation energy =  -0.00662334
 CCSD(T) total energy       = -27.24571535

 CCSD  T1^2 = 0.0023  T2^2 = 0.0935  Leading amplitudes:

 Amplitude    Orbitals with energies
  0.0090       3 (A) A                   ->    37 (A) A                   
              -0.1909                          0.6016                     
  0.0090       3 (A) B                   ->    37 (A) B                   
              -0.1909                          0.6016                     
  0.0090       4 (A) A                   ->    36 (A) A                   
              -0.1908                          0.6016                     
  0.0090       4 (A) B                   ->    36 (A) B                   
              -0.1908                          0.6016                     

 Amplitude    Orbitals with energies
 -0.0190       5 (A) A       5 (A) B     ->    41 (A) A      41 (A) B     
              -0.1908       -0.1908            0.7044        0.7044       
  0.0190       5 (A) A       5 (A) B     ->    41 (A) B      41 (A) A     
              -0.1908       -0.1908            0.7044        0.7044       
  0.0190       5 (A) B       5 (A) A     ->    41 (A) A      41 (A) B     
              -0.1908       -0.1908            0.7044        0.7044       
 -0.0190       5 (A) B       5 (A) A     ->    41 (A) B      41 (A) A     
              -0.1908       -0.1908            0.7044        0.7044       

 CCSD calculation:   CPU 7078.28 s  wall 1923.67 s

 Total ccman2 time:   CPU 16272.89 s  wall 3483.82 s

 
 --------------------------------------------------------------
 
                    Orbital Energies (a.u.)
 --------------------------------------------------------------
 
 Alpha MOs
 -- Occupied --
 -7.288  -0.452  -0.191  -0.191  -0.191
 -- Virtual --
  0.132   0.138   0.138   0.139   0.186   0.186   0.186   0.242
  0.253   0.253   0.292   0.293   0.293   0.370   0.373   0.374
  0.374   0.418   0.418   0.418   0.441   0.441   0.442   0.478
  0.478   0.484   0.512   0.512   0.512   0.602   0.602   0.602
  0.654   0.704   0.704   0.704   0.754   0.754   0.754   0.772
  0.772   0.772   0.801   0.801   0.841   0.893   0.893   0.893
  0.909   0.915   0.915   1.012   1.012   1.012   1.053   1.053
  1.053   1.067   1.158   1.158   1.158   1.164   1.164   1.170
  1.170   1.170   1.196   1.196   1.196   1.379   1.379   1.379
  1.416   1.416   1.416   1.486   1.486   1.696   1.696   1.696
  1.715   1.784   1.831   1.831   1.831   1.833   1.833   1.840
  1.840   1.840   1.938   1.949   1.949   1.949   2.084   2.084
  2.084   2.084   2.087   2.087   2.087   2.121   2.121   2.205
  2.205   2.205   2.278   2.278   2.278   2.291   2.291   2.291
  2.291   2.372   2.372   2.372   2.470   2.470   2.484   2.484
  2.484   2.523   2.523   2.554   2.554   2.554   2.631   2.656
  2.656   2.656   2.851   2.851   2.851   2.930   2.930   2.930
  3.132   3.448   3.448   3.461   3.461   3.462   3.586   3.586
  3.586   3.589   3.675   3.676   3.676   3.709   3.709   3.762
  3.762   3.762   3.846   3.847   3.847   3.912   4.001   4.001
  4.001   4.133   4.133   4.133   4.250   4.250   4.250   4.312
  4.457   4.457   4.809   4.809   4.809   4.877   4.877   4.877
  4.929   4.954   4.954   5.284   5.284   5.437   5.437   5.437
  5.615   5.615   5.615   5.917   5.917   5.917   5.996   5.996
  5.996   6.205   6.986   6.993   6.993   6.994   7.020   7.020
  7.021   7.295   7.528   7.528   7.528   7.569   7.569   7.569
  7.958   7.958   8.004   8.095   8.095   8.095   8.279   8.279
  8.279   8.418   8.418   8.495   8.495   8.495   8.746   8.746
  8.746   8.950   9.117   9.117   9.308   9.308   9.308   9.349
  9.349   9.349   9.537   9.537   9.604   9.604   9.604   9.801
  9.866   9.866   9.866  10.074  10.074  10.074  10.299  10.299
 10.299  10.412  10.412  10.428  10.428  10.428  10.809  11.404
 11.404  11.404  12.875  14.812  14.812  14.812  20.365  20.365
 21.404  21.404  21.404  27.378  46.557  46.557  46.557  76.339
 76.339  76.339  76.362  76.362  76.362  76.399  85.984  86.638
 86.638  87.151  87.151  87.151 153.642 153.642 153.642 351.161
 
 Beta MOs
 -- Occupied --
 -7.288  -0.452  -0.191  -0.191  -0.191
 -- Virtual --
  0.132   0.138   0.138   0.139   0.186   0.186   0.186   0.242
  0.253   0.253   0.292   0.293   0.293   0.370   0.373   0.374
  0.374   0.418   0.418   0.418   0.441   0.441   0.442   0.478
  0.478   0.484   0.512   0.512   0.512   0.602   0.602   0.602
  0.654   0.704   0.704   0.704   0.754   0.754   0.754   0.772
  0.772   0.772   0.801   0.801   0.841   0.893   0.893   0.893
  0.909   0.915   0.915   1.012   1.012   1.012   1.053   1.053
  1.053   1.067   1.158   1.158   1.158   1.164   1.164   1.170
  1.170   1.170   1.196   1.196   1.196   1.379   1.379   1.379
  1.416   1.416   1.416   1.486   1.486   1.696   1.696   1.696
  1.715   1.784   1.831   1.831   1.831   1.833   1.833   1.840
  1.840   1.840   1.938   1.949   1.949   1.949   2.084   2.084
  2.084   2.084   2.087   2.087   2.087   2.121   2.121   2.205
  2.205   2.205   2.278   2.278   2.278   2.291   2.291   2.291
  2.291   2.372   2.372   2.372   2.470   2.470   2.484   2.484
  2.484   2.523   2.523   2.554   2.554   2.554   2.631   2.656
  2.656   2.656   2.851   2.851   2.851   2.930   2.930   2.930
  3.132   3.448   3.448   3.461   3.461   3.462   3.586   3.586
  3.586   3.589   3.675   3.676   3.676   3.709   3.709   3.762
  3.762   3.762   3.846   3.847   3.847   3.912   4.001   4.001
  4.001   4.133   4.133   4.133   4.250   4.250   4.250   4.312
  4.457   4.457   4.809   4.809   4.809   4.877   4.877   4.877
  4.929   4.954   4.954   5.284   5.284   5.437   5.437   5.437
  5.615   5.615   5.615   5.917   5.917   5.917   5.996   5.996
  5.996   6.205   6.986   6.993   6.993   6.994   7.020   7.020
  7.021   7.295   7.528   7.528   7.528   7.569   7.569   7.569
  7.958   7.958   8.004   8.095   8.095   8.095   8.279   8.279
  8.279   8.418   8.418   8.495   8.495   8.495   8.746   8.746
  8.746   8.950   9.117   9.117   9.308   9.308   9.308   9.349
  9.349   9.349   9.537   9.537   9.604   9.604   9.604   9.801
  9.866   9.866   9.866  10.074  10.074  10.074  10.299  10.299
 10.299  10.412  10.412  10.428  10.428  10.428  10.809  11.404
 11.404  11.404  12.875  14.812  14.812  14.812  20.365  20.365
 21.404  21.404  21.404  27.378  46.557  46.557  46.557  76.339
 76.339  76.339  76.362  76.362  76.362  76.399  85.984  86.638
 86.638  87.151  87.151  87.151 153.642 153.642 153.642 351.161
 --------------------------------------------------------------
 
          Ground-State Mulliken Net Atomic Charges

     Atom                 Charge (a.u.)    Spin (a.u.)
  --------------------------------------------------------
      1 B                    -0.413400       0.000000
      2 H                    -0.146714       0.000000
      3 H                    -0.146714       0.000000
      4 H                    -0.146586       0.000000
      5 H                    -0.146586       0.000000
  --------------------------------------------------------
  Sum of atomic charges =    -1.000000
  Sum of spin   charges =     0.000000

 -----------------------------------------------------------------
                    Cartesian Multipole Moments
 -----------------------------------------------------------------
    Charge (ESU x 10^10)
                -4.8032
    Dipole Moment (Debye)
         X       0.0000      Y       0.0000      Z      -0.0090
       Tot       0.0090
    Quadrupole Moments (Debye-Ang)
        XX     -15.7007     XY      -0.0024     YY     -15.7007
        XZ      -0.0000     YZ       0.0000     ZZ     -15.7007
    Octopole Moments (Debye-Ang^2)
       XXX       0.0000    XXY      -0.0000    XYY       0.0000
       YYY      -0.0000    XXZ      -0.0128    XYZ      -2.2363
       YYZ      -0.0128    XZZ       0.0000    YZZ      -0.0000
       ZZZ      -0.0338
    Hexadecapole Moments (Debye-Ang^3)
      XXXX     -44.4401   XXXY      -0.0083   XXYY     -15.5237
      XYYY      -0.0083   YYYY     -44.4401   XXXZ      -0.0000
      XXYZ       0.0000   XYYZ      -0.0000   YYYZ       0.0000
      XXZZ     -15.5237   XYZZ      -0.0091   YYZZ     -15.5237
      XZZZ      -0.0000   YZZZ       0.0000   ZZZZ     -44.4402
 -----------------------------------------------------------------
Archival summary:
1\1\n0044.mhg0\SP\ProcedureUnspecified\BasisUnspecified\14(1-,1)\yhljason\MonSep2103:10:322020MonSep2103:10:322020\0\\#,ProcedureUnspecified,BasisUnspecified,\\-1,1\B\H,1,1.23391\H,1,1.23391,2,109.471\H,1,1.23391,2,109.471,3,120,0\H,1,1.23391,2,109.471,3,-120,0\\HF=-26.9893684\\@

 Total job time:  3580.10s(wall), 17641.61s(cpu) 
 Mon Sep 21 03:10:32 2020

        *************************************************************
        *                                                           *
        *  Thank you very much for using Q-Chem.  Have a nice day.  *
        *                                                           *
        *************************************************************


 
User input: 3 of 3 
 
Q-Chem Developer Version!
                  Welcome to Q-Chem
     A Quantum Leap Into The Future Of Chemistry


 Q-Chem 5.1, Q-Chem, Inc., Pleasanton, CA (2018)

 Yihan Shao,  Zhengting Gan,  E. Epifanovsky,  A. T. B. Gilbert,  M. Wormit,  
 J. Kussmann,  A. W. Lange,  A. Behn,  Jia Deng,  Xintian Feng,  D. Ghosh,  
 M. Goldey,  P. R. Horn,  L. D. Jacobson,  I. Kaliman,  T. Kus,  A. Landau,  
 Jie Liu,  E. I. Proynov,  R. M. Richard,  R. P. Steele,  E. J. Sundstrom,  
 H. L. Woodcock III,  P. M. Zimmerman,  D. Zuev,  B. Albrecht,  E. Alguire,  
 S. A. Baeppler,  D. Barton,  Z. Benda,  Y. A. Bernard,  E. J. Berquist,  
 K. B. Bravaya,  H. Burton,  D. Casanova,  Chun-Min Chang,  Yunqing Chen,  
 A. Chien,  K. D. Closser,  M. P. Coons,  S. Coriani,  S. Dasgupta,  
 A. L. Dempwolff,  M. Diedenhofen,  Hainam Do,  R. G. Edgar,  Po-Tung Fang,  
 S. Faraji,  S. Fatehi,  Qingguo Feng,  K. D. Fenk,  J. Fosso-Tande,  
 Qinghui Ge,  A. Ghysels,  G. Gidofalvi,  J. Gomes,  J. Gonthier,  A. Gunina,  
 D. Hait,  M. W. D. Hanson-Heine,  P. H. P. Harbach,  A. W. Hauser,  
 J. E. Herr,  E. G. Hohenstein,  Z. C. Holden,  Kerwin Hui,  B. C. Huynh,  
 T.-C. Jagau,  Hyunjun Ji,  B. Kaduk,  K. Khistyaev,  Jaehoon Kim,  
 P. Klunzinger,  K. Koh,  D. Kosenkov,  L. Koulias,  T. Kowalczyk,  
 C. M. Krauter,  A. Kunitsa,  Ka Un Lao,  A. Laurent,  K. V. Lawler,  
 Joonho Lee,  D. Lefrancois,  S. Lehtola,  D. S. Levine,  Yi-Pei Li,  
 You-Sheng Lin,  Fenglai Liu,  E. Livshits,  A. Luenser,  P. Manohar,  
 E. Mansoor,  S. F. Manzer,  Shan-Ping Mao,  Yuezhi Mao,  N. Mardirossian,  
 A. V. Marenich,  T. Markovich,  L. A. Martinez-Martinez,  S. A. Maurer,  
 N. J. Mayhall,  S. C. McKenzie,  J.-M. Mewes,  A. F. Morrison,  
 J. W. Mullinax,  K. Nanda,  T. S. Nguyen-Beck,  R. Olivares-Amaya,  
 J. A. Parkhill,  T. M. Perrine,  F. Plasser,  P. Pokhilko,  S. Prager,  
 A. Prociuk,  E. Ramos,  D. R. Rehn,  F. Rob,  M. Schneider,  N. Sergueev,  
 S. M. Sharada,  S. Sharma,  D. W. Small,  T. Stauch,  T. Stein,  
 Yu-Chuan Su,  A. J. W. Thom,  A. Tkatchenko,  T. Tsuchimochi,  N. M. Tubman,  
 L. Vogt,  M. L. Vidal,  O. Vydrov,  M. A. Watson,  J. Wenzel,  
 M. de Wergifosse,  T. A. Wesolowski,  A. White,  J. Witte,  A. Yamada,  
 Jun Yang,  K. Yao,  S. Yeganeh,  S. R. Yost,  Zhi-Qiang You,  A. Zech,  
 Igor Ying Zhang,  Xing Zhang,  Yan Zhao,  Ying Zhu,  B. R. Brooks,  
 G. K. L. Chan,  C. J. Cramer,  M. S. Gordon,  W. J. Hehre,  A. Klamt,  
 M. W. Schmidt,  C. D. Sherrill,  D. G. Truhlar,  A. Aspuru-Guzik,  R. Baer,  
 A. T. Bell,  N. A. Besley,  Jeng-Da Chai,  A. E. DePrince, III,  
 R. A. DiStasio Jr.,  A. Dreuw,  B. D. Dunietz,  T. R. Furlani,  
 Chao-Ping Hsu,  Yousung Jung,  Jing Kong,  D. S. Lambrecht,  WanZhen Liang,  
 C. Ochsenfeld,  V. A. Rassolov,  L. V. Slipchenko,  J. E. Subotnik,  
 T. Van Voorhis,  J. M. Herbert,  A. I. Krylov,  P. M. W. Gill,  M. Head-Gordon

 Contributors to earlier versions of Q-Chem not listed above: 
 R. D. Adamson,  B. Austin,  J. Baker,  G. J. O. Beran,  K. Brandhorst,  
 S. T. Brown,  E. F. C. Byrd,  A. K. Chakraborty,  C.-L. Cheng,  
 Siu Hung Chien,  D. M. Chipman,  D. L. Crittenden,  H. Dachsel,  
 R. J. Doerksen,  A. D. Dutoi,  L. Fusti-Molnar,  W. A. Goddard III,  
 A. Golubeva-Zadorozhnaya,  S. R. Gwaltney,  G. Hawkins,  A. Heyden,  
 S. Hirata,  G. Kedziora,  F. J. Keil,  C. Kelley,  Jihan Kim,  R. A. King,  
 R. Z. Khaliullin,  P. P. Korambath,  W. Kurlancheek,  A. M. Lee,  M. S. Lee,  
 S. V. Levchenko,  Ching Yeh Lin,  D. Liotard,  R. C. Lochan,  I. Lotan,  
 P. E. Maslen,  N. Nair,  D. P. O'Neill,  D. Neuhauser,  E. Neuscamman,  
 C. M. Oana,  R. Olson,  B. Peters,  R. Peverati,  P. A. Pieniazek,  
 Y. M. Rhee,  J. Ritchie,  M. A. Rohrdanz,  E. Rosta,  N. J. Russ,  
 H. F. Schaefer III,  N. E. Schultz,  N. Shenvi,  A. C. Simmonett,  A. Sodt,  
 D. Stuck,  K. S. Thanthiriwatte,  V. Vanovschi,  Tao Wang,  A. Warshel,  
 C. F. Williams,  Q. Wu,  X. Xu,  W. Zhang

 Please cite Q-Chem as follows:
 Y. Shao et al., Mol. Phys. 113, 184-215 (2015)
 DOI: 10.1080/00268976.2014.952696

 Q-Chem 5.1.1 for Intel X86 EM64T Linux

 Parts of Q-Chem use Armadillo 8.300.2 (Tropical Shenanigans).
 http://arma.sourceforge.net/

 Q-Chem begins on Mon Sep 21 03:10:33 2020  

Host: n0044.mhg0
0

     Scratch files written to /local/scratch/users/yhljason/BH4-_ccsdT_aug-cc-pcVQZ.inp20200921010454//
The previous job contains 0 fragments, simply inherited here
Input Ideriv = 0
Curr. Ideriv = -1
Max.  Ideriv = 0

Checking the input file for inconsistencies... 	...done.

--------------------------------------------------------------
User input:
--------------------------------------------------------------
$molecule
read
$end

$rem

jobtype sp
method CCSD(T)
xc_grid 000099000590
basis aug-cc-pcVQZ
max_scf_cycles 200
thresh 14
scf_convergence 8
mem_total 128000
cc_memory 96000
cc_backend xm
mem_static 1500
symmetry false
sym_ignore true
scf_guess read
unrestricted true
scf_algorithm gdm
n_frozen_core 0
$end

$multipole_field
Z -0.0001
$end

--------------------------------------------------------------
 ----------------------------------------------------------------
             Standard Nuclear Orientation (Angstroms)
    I     Atom           X                Y                Z
 ----------------------------------------------------------------
    1      B       0.0000000000     0.0000000000     0.0000000000
    2      H       0.7123986049     0.7123986049     0.7123986049
    3      H      -0.7123986049    -0.7123986049     0.7123986049
    4      H      -0.7123986049     0.7123986049    -0.7123986049
    5      H       0.7123986049    -0.7123986049    -0.7123986049
 ----------------------------------------------------------------
 Nuclear Repulsion Energy =    10.1529767674 hartrees
 There are        5 alpha and        5 beta electrons
 Requested basis set is aug-cc-pCVQZ
 There are 85 shells and 293 basis functions
 Total memory of 128000MB is distributed as follows: 
   QALLOC including MEM_STATIC uses 32000MB
   MEM_STATIC is set to 1500MB
   CCMAN JOB total memory use is  96000MB
 Warning: actual memory use might exceed 128000MB

 Total QAlloc Memory Limit  32000 MB
 Mega-Array Size      1467 MB
 MEM_STATIC part      1500 MB

                       Distance Matrix (Angstroms)
             B (  1)   H (  2)   H (  3)   H (  4)
   H (  2)  1.233911
   H (  3)  1.233911  2.014968
   H (  4)  1.233911  2.014968  2.014968
   H (  5)  1.233911  2.014968  2.014968  2.014968
 
 Applying Cartesian multipole field
    Component          Value
    ---------          -----
     (0,0,1)       -1.00000E-04
 A cutoff of  1.0D-14 yielded   3655 shell pairs
 There are     43647 function pairs (     65712 Cartesian)
 
 -------------------------------------------------------
 OpenMP Integral Computing Module                       
 Release: version 1.0, May 2013, Q-Chem Inc. Pittsburgh 
 -------------------------------------------------------
 Integral Job Info:
 Integral job number is                      11
 Integral operator is                         1
 short-range coefficients                     0
 long-range coefficients              100000000
 Omega coefficients                           0
 if combine SR and LR in K                    0
 Integral screening is                        0
 Integral computing path is                   2
 max size of driver memory is           3200000
 size of driver memory is               1704330
 size of scratch memory is             18511652
 max col of scratch BK array              50625
 max len of scratch array in speh3         2114
 max len of scratch index in speh4           50
 max int batch size is                      520
 min int batch size is                       52
 fixed nKL is                                52
 max L of basis functions is                  4
 order of int derivative is                   0
 number of shells is                         85
 number of basis is                         359
 number of cartesian basis is               359
 number of contracted shell pairs          3655
 number of primitive shell pairs           6095
 maxK2 (contraction) of shell pair           81
 max number of K2 of shell pair               1
 max number of CS2 of shell pair            537
 max number of PS2 of shell pair            537
 mem total for path MDJ                  736752
 -------------------------------------------------------
 Smallest overlap matrix eigenvalue = 3.08E-06
 Guess MOs from SCF MO coefficient file

 -----------------------------------------------------------------------
  General SCF calculation program by
  Eric Jon Sundstrom, Paul Horn, Yuezhi Mao, Dmitri Zuev, Alec White,
  David Stuck, Shaama M.S., Shane Yost, Joonho Lee, David Small,
  Daniel Levine, Susi Lehtola, Hugh Burton, Evgeny Epifanovsky
 -----------------------------------------------------------------------
 Hartree-Fock
 using 16 threads for integral computing
 -------------------------------------------------------
 OpenMP Integral computing Module                
 Release: version 2.0, May 2017, Q-Chem Inc. Pleasanton 
 -------------------------------------------------------
 A unrestricted SCF calculation will be
 performed using GDM
 SCF converges when RMS gradient is below 1.0e-08
 ---------------------------------------
  Cycle       Energy        RMS Gradient
 ---------------------------------------
    1     -26.9893676525      2.55e-04   Normal BFGS step
    2     -26.9893682872      7.33e-05   Normal BFGS step
    3     -26.9893683550      1.54e-05   Normal BFGS step
    4     -26.9893683576      4.46e-06   Normal BFGS step
    5     -26.9893683579      1.05e-06   Normal BFGS step
    6     -26.9893683579      2.15e-07   Normal BFGS step
    7     -26.9893683579      2.62e-08   Normal BFGS step
    8     -26.9893683579      6.97e-09  Convergence criterion met
 ---------------------------------------
 SCF time:   CPU 1346.00s  wall 84.00s 
<S^2> =          0.000000000
 SCF   energy in the final basis set =      -26.9893683579
 Total energy in the final basis set =      -26.9893683579


[...]
  2.484   2.523   2.523   2.554   2.554   2.554   2.631   2.656
126 A   127 A   128 A   129 A   130 A   131 A   132 A   133 A                  
  2.656   2.656   2.851   2.851   2.851   2.930   2.930   2.930
134 A   135 A   136 A   137 A   138 A   139 A   140 A   141 A                  
  3.132   3.448   3.448   3.461   3.461   3.462   3.586   3.586
142 A   143 A   144 A   145 A   146 A   147 A   148 A   149 A                  
  3.586   3.589   3.675   3.676   3.676   3.709   3.709   3.762
150 A   151 A   152 A   153 A   154 A   155 A   156 A   157 A                  
  3.762   3.762   3.846   3.847   3.847   3.912   4.001   4.001
158 A   159 A   160 A   161 A   162 A   163 A   164 A   165 A                  
  4.001   4.133   4.133   4.133   4.250   4.250   4.250   4.312
166 A   167 A   168 A   169 A   170 A   171 A   172 A   173 A                  
  4.457   4.457   4.809   4.809   4.809   4.877   4.877   4.877
174 A   175 A   176 A   177 A   178 A   179 A   180 A   181 A                  
  4.929   4.954   4.954   5.284   5.284   5.437   5.437   5.437
182 A   183 A   184 A   185 A   186 A   187 A   188 A   189 A                  
  5.615   5.615   5.615   5.917   5.917   5.917   5.996   5.996
190 A   191 A   192 A   193 A   194 A   195 A   196 A   197 A                  
  5.996   6.205   6.986   6.993   6.993   6.994   7.020   7.020
198 A   199 A   200 A   201 A   202 A   203 A   204 A   205 A                  
  7.021   7.295   7.528   7.528   7.528   7.569   7.569   7.569
206 A   207 A   208 A   209 A   210 A   211 A   212 A   213 A                  
  7.958   7.958   8.004   8.095   8.095   8.095   8.279   8.279
214 A   215 A   216 A   217 A   218 A   219 A   220 A   221 A                  
  8.279   8.418   8.418   8.495   8.495   8.495   8.746   8.746
222 A   223 A   224 A   225 A   226 A   227 A   228 A   229 A                  
  8.746   8.950   9.117   9.117   9.308   9.308   9.308   9.349
230 A   231 A   232 A   233 A   234 A   235 A   236 A   237 A                  
  9.349   9.349   9.537   9.537   9.604   9.604   9.604   9.801
238 A   239 A   240 A   241 A   242 A   243 A   244 A   245 A                  
  9.866   9.866   9.866  10.074  10.074  10.074  10.299  10.299
246 A   247 A   248 A   249 A   250 A   251 A   252 A   253 A                  
 10.299  10.412  10.412  10.428  10.428  10.428  10.809  11.404
254 A   255 A   256 A   257 A   258 A   259 A   260 A   261 A                  
 11.404  11.404  12.875  14.812  14.812  14.812  20.365  20.365
262 A   263 A   264 A   265 A   266 A   267 A   268 A   269 A                  
 21.404  21.404  21.404  27.378  46.557  46.557  46.557  76.339
270 A   271 A   272 A   273 A   274 A   275 A   276 A   277 A                  
 76.339  76.339  76.362  76.362  76.362  76.399  85.984  86.638
278 A   279 A   280 A   281 A   282 A   283 A   284 A   285 A                  
 86.638  87.151  87.151  87.151 153.642 153.642 153.642 351.161
286 A   287 A   288 A   289 A   290 A   291 A   292 A   293 A                  
 
 Beta MOs, Unrestricted
 -- Occupied --                  
 -7.288  -0.452  -0.191  -0.191  -0.191
  1 A     2 A     3 A     4 A     5 A                                          
 -- Virtual --                   
  0.132   0.138   0.138   0.139   0.186   0.186   0.186   0.242
  6 A     7 A     8 A     9 A    10 A    11 A    12 A    13 A                  
  0.253   0.253   0.292   0.293   0.293   0.370   0.373   0.374
 14 A    15 A    16 A    17 A    18 A    19 A    20 A    21 A                  
  0.374   0.418   0.418   0.418   0.441   0.441   0.442   0.478
 22 A    23 A    24 A    25 A    26 A    27 A    28 A    29 A                  
  0.478   0.484   0.512   0.512   0.512   0.602   0.602   0.602
 30 A    31 A    32 A    33 A    34 A    35 A    36 A    37 A                  
  0.654   0.704   0.704   0.704   0.754   0.754   0.754   0.772
 38 A    39 A    40 A    41 A    42 A    43 A    44 A    45 A                  
  0.772   0.772   0.801   0.801   0.841   0.893   0.893   0.893
 46 A    47 A    48 A    49 A    50 A    51 A    52 A    53 A                  
  0.909   0.915   0.915   1.012   1.012   1.012   1.053   1.053
 54 A    55 A    56 A    57 A    58 A    59 A    60 A    61 A                  
  1.053   1.067   1.158   1.158   1.158   1.164   1.164   1.170
 62 A    63 A    64 A    65 A    66 A    67 A    68 A    69 A                  
  1.170   1.170   1.196   1.196   1.196   1.379   1.379   1.379
 70 A    71 A    72 A    73 A    74 A    75 A    76 A    77 A                  
  1.416   1.416   1.416   1.486   1.486   1.696   1.696   1.696
 78 A    79 A    80 A    81 A    82 A    83 A    84 A    85 A                  
  1.715   1.784   1.831   1.831   1.831   1.833   1.833   1.840
 86 A    87 A    88 A    89 A    90 A    91 A    92 A    93 A                  
  1.840   1.840   1.938   1.949   1.949   1.949   2.084   2.084
 94 A    95 A    96 A    97 A    98 A    99 A   100 A   101 A                  
  2.084   2.084   2.087   2.087   2.087   2.121   2.121   2.205
102 A   103 A   104 A   105 A   106 A   107 A   108 A   109 A                  
  2.205   2.205   2.278   2.278   2.278   2.291   2.291   2.291
110 A   111 A   112 A   113 A   114 A   115 A   116 A   117 A                  
  2.291   2.372   2.372   2.372   2.470   2.470   2.484   2.484
118 A   119 A   120 A   121 A   122 A   123 A   124 A   125 A                  
  2.484   2.523   2.523   2.554   2.554   2.554   2.631   2.656
126 A   127 A   128 A   129 A   130 A   131 A   132 A   133 A                  
  2.656   2.656   2.851   2.851   2.851   2.930   2.930   2.930
134 A   135 A   136 A   137 A   138 A   139 A   140 A   141 A                  
  3.132   3.448   3.448   3.461   3.461   3.462   3.586   3.586
142 A   143 A   144 A   145 A   146 A   147 A   148 A   149 A                  
  3.586   3.589   3.675   3.676   3.676   3.709   3.709   3.762
150 A   151 A   152 A   153 A   154 A   155 A   156 A   157 A                  
  3.762   3.762   3.846   3.847   3.847   3.912   4.001   4.001
158 A   159 A   160 A   161 A   162 A   163 A   164 A   165 A                  
  4.001   4.133   4.133   4.133   4.250   4.250   4.250   4.312
166 A   167 A   168 A   169 A   170 A   171 A   172 A   173 A                  
  4.457   4.457   4.809   4.809   4.809   4.877   4.877   4.877
174 A   175 A   176 A   177 A   178 A   179 A   180 A   181 A                  
  4.929   4.954   4.954   5.284   5.284   5.437   5.437   5.437
182 A   183 A   184 A   185 A   186 A   187 A   188 A   189 A                  
  5.615   5.615   5.615   5.917   5.917   5.917   5.996   5.996
190 A   191 A   192 A   193 A   194 A   195 A   196 A   197 A                  
  5.996   6.205   6.986   6.993   6.993   6.994   7.020   7.020
198 A   199 A   200 A   201 A   202 A   203 A   204 A   205 A                  
  7.021   7.295   7.528   7.528   7.528   7.569   7.569   7.569
206 A   207 A   208 A   209 A   210 A   211 A   212 A   213 A                  
  7.958   7.958   8.004   8.095   8.095   8.095   8.279   8.279
214 A   215 A   216 A   217 A   218 A   219 A   220 A   221 A                  
  8.279   8.418   8.418   8.495   8.495   8.495   8.746   8.746
222 A   223 A   224 A   225 A   226 A   227 A   228 A   229 A                  
  8.746   8.950   9.117   9.117   9.308   9.308   9.308   9.349
230 A   231 A   232 A   233 A   234 A   235 A   236 A   237 A                  
  9.349   9.349   9.537   9.537   9.604   9.604   9.604   9.801
238 A   239 A   240 A   241 A   242 A   243 A   244 A   245 A                  
  9.866   9.866   9.866  10.074  10.074  10.074  10.299  10.299
246 A   247 A   248 A   249 A   250 A   251 A   252 A   253 A                  
 10.299  10.412  10.412  10.428  10.428  10.428  10.809  11.404
254 A   255 A   256 A   257 A   258 A   259 A   260 A   261 A                  
 11.404  11.404  12.875  14.812  14.812  14.812  20.365  20.365
262 A   263 A   264 A   265 A   266 A   267 A   268 A   269 A                  
 21.404  21.404  21.404  27.378  46.557  46.557  46.557  76.339
270 A   271 A   272 A   273 A   274 A   275 A   276 A   277 A                  
 76.339  76.339  76.362  76.362  76.362  76.399  85.984  86.638
278 A   279 A   280 A   281 A   282 A   283 A   284 A   285 A                  
 86.638  87.151  87.151  87.151 153.642 153.642 153.642 351.161
286 A   287 A   288 A   289 A   290 A   291 A   292 A   293 A                  

 Occupation and symmetry of molecular orbitals

 Point group: C1 (1 irreducible representation).

                           A     All 
 -------------------------------------
 All molecular orbitals:
  - Alpha                  293   293 
  - Beta                   293   293 
 -------------------------------------
 Alpha orbitals:
  - Frozen occupied        0     0   
  - Active occupied        5     5   
  - Active virtual         288   288 
  - Frozen virtual         0     0   
 -------------------------------------
 Beta orbitals:
  - Frozen occupied        0     0   
  - Active occupied        5     5   
  - Active virtual         288   288 
  - Frozen virtual         0     0   
 -------------------------------------

 Import integrals:   CPU 0.00 s  wall 0.00 s

 Import integrals:   CPU 9396.98 s  wall 1372.53 s

 MP2 amplitudes:   CPU 4.96 s  wall 16.10 s

Running a double precision version
           CCSD T amplitudes will be solved using DIIS.

           Start     Size      MaxIter   EConv     TConv     
           3         7         100       1.00e-06  1.00e-04  
 ------------------------------------------------------------------------------
           Energy (a.u.)   Ediff      Tdiff       Comment
 ------------------------------------------------------------------------------
           -27.21546462                           
     1     -27.23173366   1.63e-02   4.36e-01     Step took 04.08.
     2     -27.23720426   5.47e-03   5.85e-02     
     3     -27.23835803   1.15e-03   1.84e-02     
     4     -27.23903555   6.78e-04   8.17e-03     Switched to DIIS steps.
     5     -27.23908924   5.37e-05   2.05e-03     
     6     -27.23909125   2.02e-06   7.09e-04     
     7     -27.23909187   6.19e-07   2.52e-04     
     8     -27.23909201   1.36e-07   7.35e-05     
 ------------------------------------------------------------------------------
           -27.23909201                           CCSD T converged.

End of double precision

----------------------------------------
libpt (c) 2016-2018 Ilya Kaliman
Fast Coupled Cluster Triples Corrections
https://github.com/ilyak/libpt
----------------------------------------

 Starting (T) calculation...
 Using double precision libpt code
 (T) calculation completed in 119 sec
 (T) energy is -0.0066233413

 SCF energy                 = -26.98936836
 MP2 energy                 = -27.21546462
 CCSD correlation energy     =  -0.24972365
 CCSD total energy           = -27.23909201
 CCSD(T) correlation energy =  -0.00662334
 CCSD(T) total energy       = -27.24571535

 CCSD  T1^2 = 0.0023  T2^2 = 0.0935  Leading amplitudes:

 Amplitude    Orbitals with energies
  0.0090       3 (A) B                   ->    37 (A) B                   
              -0.1909                          0.6016                     
  0.0090       3 (A) A                   ->    37 (A) A                   
              -0.1909                          0.6016                     
  0.0090       4 (A) B                   ->    36 (A) B                   
              -0.1908                          0.6016                     
  0.0090       4 (A) A                   ->    36 (A) A                   
              -0.1908                          0.6016                     

 Amplitude    Orbitals with energies
 -0.0190       5 (A) A       5 (A) B     ->    41 (A) A      41 (A) B     
              -0.1908       -0.1908            0.7044        0.7044       
  0.0190       5 (A) A       5 (A) B     ->    41 (A) B      41 (A) A     
              -0.1908       -0.1908            0.7044        0.7044       
  0.0190       5 (A) B       5 (A) A     ->    41 (A) A      41 (A) B     
              -0.1908       -0.1908            0.7044        0.7044       
 -0.0190       5 (A) B       5 (A) A     ->    41 (A) B      41 (A) A     
              -0.1908       -0.1908            0.7044        0.7044       

 CCSD calculation:   CPU 7184.79 s  wall 1853.15 s

 Total ccman2 time:   CPU 16691.21 s  wall 3438.15 s

 
 --------------------------------------------------------------
 
                    Orbital Energies (a.u.)
 --------------------------------------------------------------
 
 Alpha MOs
 -- Occupied --
 -7.288  -0.452  -0.191  -0.191  -0.191
 -- Virtual --
  0.132   0.138   0.138   0.139   0.186   0.186   0.186   0.242
  0.253   0.253   0.292   0.293   0.293   0.370   0.373   0.374
  0.374   0.418   0.418   0.418   0.441   0.441   0.442   0.478
  0.478   0.484   0.512   0.512   0.512   0.602   0.602   0.602
  0.654   0.704   0.704   0.704   0.754   0.754   0.754   0.772
  0.772   0.772   0.801   0.801   0.841   0.893   0.893   0.893
  0.909   0.915   0.915   1.012   1.012   1.012   1.053   1.053
  1.053   1.067   1.158   1.158   1.158   1.164   1.164   1.170
  1.170   1.170   1.196   1.196   1.196   1.379   1.379   1.379
  1.416   1.416   1.416   1.486   1.486   1.696   1.696   1.696
  1.715   1.784   1.831   1.831   1.831   1.833   1.833   1.840
  1.840   1.840   1.938   1.949   1.949   1.949   2.084   2.084
  2.084   2.084   2.087   2.087   2.087   2.121   2.121   2.205
  2.205   2.205   2.278   2.278   2.278   2.291   2.291   2.291
  2.291   2.372   2.372   2.372   2.470   2.470   2.484   2.484
  2.484   2.523   2.523   2.554   2.554   2.554   2.631   2.656
  2.656   2.656   2.851   2.851   2.851   2.930   2.930   2.930
  3.132   3.448   3.448   3.461   3.461   3.462   3.586   3.586
  3.586   3.589   3.675   3.676   3.676   3.709   3.709   3.762
  3.762   3.762   3.846   3.847   3.847   3.912   4.001   4.001
  4.001   4.133   4.133   4.133   4.250   4.250   4.250   4.312
  4.457   4.457   4.809   4.809   4.809   4.877   4.877   4.877
  4.929   4.954   4.954   5.284   5.284   5.437   5.437   5.437
  5.615   5.615   5.615   5.917   5.917   5.917   5.996   5.996
  5.996   6.205   6.986   6.993   6.993   6.994   7.020   7.020
  7.021   7.295   7.528   7.528   7.528   7.569   7.569   7.569
  7.958   7.958   8.004   8.095   8.095   8.095   8.279   8.279
  8.279   8.418   8.418   8.495   8.495   8.495   8.746   8.746
  8.746   8.950   9.117   9.117   9.308   9.308   9.308   9.349
  9.349   9.349   9.537   9.537   9.604   9.604   9.604   9.801
  9.866   9.866   9.866  10.074  10.074  10.074  10.299  10.299
 10.299  10.412  10.412  10.428  10.428  10.428  10.809  11.404
 11.404  11.404  12.875  14.812  14.812  14.812  20.365  20.365
 21.404  21.404  21.404  27.378  46.557  46.557  46.557  76.339
 76.339  76.339  76.362  76.362  76.362  76.399  85.984  86.638
 86.638  87.151  87.151  87.151 153.642 153.642 153.642 351.161
 
 Beta MOs
 -- Occupied --
 -7.288  -0.452  -0.191  -0.191  -0.191
 -- Virtual --
  0.132   0.138   0.138   0.139   0.186   0.186   0.186   0.242
  0.253   0.253   0.292   0.293   0.293   0.370   0.373   0.374
  0.374   0.418   0.418   0.418   0.441   0.441   0.442   0.478
  0.478   0.484   0.512   0.512   0.512   0.602   0.602   0.602
  0.654   0.704   0.704   0.704   0.754   0.754   0.754   0.772
  0.772   0.772   0.801   0.801   0.841   0.893   0.893   0.893
  0.909   0.915   0.915   1.012   1.012   1.012   1.053   1.053
  1.053   1.067   1.158   1.158   1.158   1.164   1.164   1.170
  1.170   1.170   1.196   1.196   1.196   1.379   1.379   1.379
  1.416   1.416   1.416   1.486   1.486   1.696   1.696   1.696
  1.715   1.784   1.831   1.831   1.831   1.833   1.833   1.840
  1.840   1.840   1.938   1.949   1.949   1.949   2.084   2.084
  2.084   2.084   2.087   2.087   2.087   2.121   2.121   2.205
  2.205   2.205   2.278   2.278   2.278   2.291   2.291   2.291
  2.291   2.372   2.372   2.372   2.470   2.470   2.484   2.484
  2.484   2.523   2.523   2.554   2.554   2.554   2.631   2.656
  2.656   2.656   2.851   2.851   2.851   2.930   2.930   2.930
  3.132   3.448   3.448   3.461   3.461   3.462   3.586   3.586
  3.586   3.589   3.675   3.676   3.676   3.709   3.709   3.762
  3.762   3.762   3.846   3.847   3.847   3.912   4.001   4.001
  4.001   4.133   4.133   4.133   4.250   4.250   4.250   4.312
  4.457   4.457   4.809   4.809   4.809   4.877   4.877   4.877
  4.929   4.954   4.954   5.284   5.284   5.437   5.437   5.437
  5.615   5.615   5.615   5.917   5.917   5.917   5.996   5.996
  5.996   6.205   6.986   6.993   6.993   6.994   7.020   7.020
  7.021   7.295   7.528   7.528   7.528   7.569   7.569   7.569
  7.958   7.958   8.004   8.095   8.095   8.095   8.279   8.279
  8.279   8.418   8.418   8.495   8.495   8.495   8.746   8.746
  8.746   8.950   9.117   9.117   9.308   9.308   9.308   9.349
  9.349   9.349   9.537   9.537   9.604   9.604   9.604   9.801
  9.866   9.866   9.866  10.074  10.074  10.074  10.299  10.299
 10.299  10.412  10.412  10.428  10.428  10.428  10.809  11.404
 11.404  11.404  12.875  14.812  14.812  14.812  20.365  20.365
 21.404  21.404  21.404  27.378  46.557  46.557  46.557  76.339
 76.339  76.339  76.362  76.362  76.362  76.399  85.984  86.638
 86.638  87.151  87.151  87.151 153.642 153.642 153.642 351.161
 --------------------------------------------------------------
 
          Ground-State Mulliken Net Atomic Charges

     Atom                 Charge (a.u.)    Spin (a.u.)
  --------------------------------------------------------
      1 B                    -0.413400       0.000000
      2 H                    -0.146586       0.000000
      3 H                    -0.146586       0.000000
      4 H                    -0.146714       0.000000
      5 H                    -0.146714       0.000000
  --------------------------------------------------------
  Sum of atomic charges =    -1.000000
  Sum of spin   charges =     0.000000

 -----------------------------------------------------------------
                    Cartesian Multipole Moments
 -----------------------------------------------------------------
    Charge (ESU x 10^10)
                -4.8032
    Dipole Moment (Debye)
         X       0.0000      Y      -0.0000      Z       0.0090
       Tot       0.0090
    Quadrupole Moments (Debye-Ang)
        XX     -15.7007     XY       0.0024     YY     -15.7007
        XZ       0.0000     YZ       0.0000     ZZ     -15.7007
    Octopole Moments (Debye-Ang^2)
       XXX       0.0000    XXY      -0.0000    XYY       0.0000
       YYY      -0.0000    XXZ       0.0128    XYZ      -2.2363
       YYZ       0.0128    XZZ       0.0000    YZZ      -0.0000
       ZZZ       0.0338
    Hexadecapole Moments (Debye-Ang^3)
      XXXX     -44.4401   XXXY       0.0083   XXYY     -15.5237
      XYYY       0.0083   YYYY     -44.4401   XXXZ       0.0000
      XXYZ       0.0000   XYYZ       0.0000   YYYZ       0.0000
      XXZZ     -15.5237   XYZZ       0.0091   YYZZ     -15.5237
      XZZZ       0.0000   YZZZ       0.0000   ZZZZ     -44.4402
 -----------------------------------------------------------------
Archival summary:
1\1\n0044.mhg0\SP\ProcedureUnspecified\BasisUnspecified\14(1-,1)\yhljason\MonSep2104:09:492020MonSep2104:09:492020\0\\#,ProcedureUnspecified,BasisUnspecified,\\-1,1\B\H,1,1.23391\H,1,1.23391,2,109.471\H,1,1.23391,2,109.471,3,120,0\H,1,1.23391,2,109.471,3,-120,0\\HF=-26.9893684\\@

 Total job time:  3556.78s(wall), 18064.06s(cpu) 
 Mon Sep 21 04:09:49 2020

        *************************************************************
        *                                                           *
        *  Thank you very much for using Q-Chem.  Have a nice day.  *
        *                                                           *
        *************************************************************


