Q-Chem Developer Version!
                  Welcome to Q-Chem
     A Quantum Leap Into The Future Of Chemistry


 Q-Chem 5.1, Q-Chem, Inc., Pleasanton, CA (2018)

 Yihan Shao,  Zhengting Gan,  E. Epifanovsky,  A. T. B. Gilbert,  M. Wormit,  
 J. Kussmann,  A. W. Lange,  A. Behn,  Jia Deng,  Xintian Feng,  D. Ghosh,  
 M. Goldey,  P. R. Horn,  L. D. Jacobson,  I. Kaliman,  T. Kus,  A. Landau,  
 Jie Liu,  E. I. Proynov,  R. M. Richard,  R. P. Steele,  E. J. Sundstrom,  
 H. L. Woodcock III,  P. M. Zimmerman,  D. Zuev,  B. Albrecht,  E. Alguire,  
 S. A. Baeppler,  D. Barton,  Z. Benda,  Y. A. Bernard,  E. J. Berquist,  
 K. B. Bravaya,  H. Burton,  D. Casanova,  Chun-Min Chang,  Yunqing Chen,  
 A. Chien,  K. D. Closser,  M. P. Coons,  S. Coriani,  S. Dasgupta,  
 A. L. Dempwolff,  M. Diedenhofen,  Hainam Do,  R. G. Edgar,  Po-Tung Fang,  
 S. Faraji,  S. Fatehi,  Qingguo Feng,  K. D. Fenk,  J. Fosso-Tande,  
 Qinghui Ge,  A. Ghysels,  G. Gidofalvi,  J. Gomes,  J. Gonthier,  A. Gunina,  
 D. Hait,  M. W. D. Hanson-Heine,  P. H. P. Harbach,  A. W. Hauser,  
 J. E. Herr,  E. G. Hohenstein,  Z. C. Holden,  Kerwin Hui,  B. C. Huynh,  
 T.-C. Jagau,  Hyunjun Ji,  B. Kaduk,  K. Khistyaev,  Jaehoon Kim,  
 P. Klunzinger,  K. Koh,  D. Kosenkov,  L. Koulias,  T. Kowalczyk,  
 C. M. Krauter,  A. Kunitsa,  Ka Un Lao,  A. Laurent,  K. V. Lawler,  
 Joonho Lee,  D. Lefrancois,  S. Lehtola,  D. S. Levine,  Yi-Pei Li,  
 You-Sheng Lin,  Fenglai Liu,  E. Livshits,  A. Luenser,  P. Manohar,  
 E. Mansoor,  S. F. Manzer,  Shan-Ping Mao,  Yuezhi Mao,  N. Mardirossian,  
 A. V. Marenich,  T. Markovich,  L. A. Martinez-Martinez,  S. A. Maurer,  
 N. J. Mayhall,  S. C. McKenzie,  J.-M. Mewes,  A. F. Morrison,  
 J. W. Mullinax,  K. Nanda,  T. S. Nguyen-Beck,  R. Olivares-Amaya,  
 J. A. Parkhill,  T. M. Perrine,  F. Plasser,  P. Pokhilko,  S. Prager,  
 A. Prociuk,  E. Ramos,  D. R. Rehn,  F. Rob,  M. Schneider,  N. Sergueev,  
 S. M. Sharada,  S. Sharma,  D. W. Small,  T. Stauch,  T. Stein,  
 Yu-Chuan Su,  A. J. W. Thom,  A. Tkatchenko,  T. Tsuchimochi,  N. M. Tubman,  
 L. Vogt,  M. L. Vidal,  O. Vydrov,  M. A. Watson,  J. Wenzel,  
 M. de Wergifosse,  T. A. Wesolowski,  A. White,  J. Witte,  A. Yamada,  
 Jun Yang,  K. Yao,  S. Yeganeh,  S. R. Yost,  Zhi-Qiang You,  A. Zech,  
 Igor Ying Zhang,  Xing Zhang,  Yan Zhao,  Ying Zhu,  B. R. Brooks,  
 G. K. L. Chan,  C. J. Cramer,  M. S. Gordon,  W. J. Hehre,  A. Klamt,  
 M. W. Schmidt,  C. D. Sherrill,  D. G. Truhlar,  A. Aspuru-Guzik,  R. Baer,  
 A. T. Bell,  N. A. Besley,  Jeng-Da Chai,  A. E. DePrince, III,  
 R. A. DiStasio Jr.,  A. Dreuw,  B. D. Dunietz,  T. R. Furlani,  
 Chao-Ping Hsu,  Yousung Jung,  Jing Kong,  D. S. Lambrecht,  WanZhen Liang,  
 C. Ochsenfeld,  V. A. Rassolov,  L. V. Slipchenko,  J. E. Subotnik,  
 T. Van Voorhis,  J. M. Herbert,  A. I. Krylov,  P. M. W. Gill,  M. Head-Gordon

 Contributors to earlier versions of Q-Chem not listed above: 
 R. D. Adamson,  B. Austin,  J. Baker,  G. J. O. Beran,  K. Brandhorst,  
 S. T. Brown,  E. F. C. Byrd,  A. K. Chakraborty,  C.-L. Cheng,  
 Siu Hung Chien,  D. M. Chipman,  D. L. Crittenden,  H. Dachsel,  
 R. J. Doerksen,  A. D. Dutoi,  L. Fusti-Molnar,  W. A. Goddard III,  
 A. Golubeva-Zadorozhnaya,  S. R. Gwaltney,  G. Hawkins,  A. Heyden,  
 S. Hirata,  G. Kedziora,  F. J. Keil,  C. Kelley,  Jihan Kim,  R. A. King,  
 R. Z. Khaliullin,  P. P. Korambath,  W. Kurlancheek,  A. M. Lee,  M. S. Lee,  
 S. V. Levchenko,  Ching Yeh Lin,  D. Liotard,  R. C. Lochan,  I. Lotan,  
 P. E. Maslen,  N. Nair,  D. P. O'Neill,  D. Neuhauser,  E. Neuscamman,  
 C. M. Oana,  R. Olson,  B. Peters,  R. Peverati,  P. A. Pieniazek,  
 Y. M. Rhee,  J. Ritchie,  M. A. Rohrdanz,  E. Rosta,  N. J. Russ,  
 H. F. Schaefer III,  N. E. Schultz,  N. Shenvi,  A. C. Simmonett,  A. Sodt,  
 D. Stuck,  K. S. Thanthiriwatte,  V. Vanovschi,  Tao Wang,  A. Warshel,  
 C. F. Williams,  Q. Wu,  X. Xu,  W. Zhang

 Please cite Q-Chem as follows:
 Y. Shao et al., Mol. Phys. 113, 184-215 (2015)
 DOI: 10.1080/00268976.2014.952696

 Q-Chem 5.1.1 for Intel X86 EM64T Linux

 Parts of Q-Chem use Armadillo 8.300.2 (Tropical Shenanigans).
 http://arma.sourceforge.net/

 Q-Chem begins on Mon Sep 21 01:05:00 2020  

Host: n0091.mhg0
0

     Scratch files written to /local/scratch/users/yhljason/CH3-_ccsdT_aug-cc-pcVQZ.inp20200921010457//
Input Ideriv = 0
Curr. Ideriv = -1
Max.  Ideriv = 0

Checking the input file for inconsistencies... 	...done.

--------------------------------------------------------------
User input:
--------------------------------------------------------------
$molecule
-1 1
C1         0.0000000000    0.0000002206    0.0716704292
H2         0.0000000000    1.0378118041   -0.2899567231
H3         0.8987709644   -0.5189060123   -0.2899568531
H4        -0.8987709644   -0.5189060124   -0.2899568531
$end

$rem
jobtype sp
method CCSD(T)
xc_grid 000099000590
basis aug-cc-pcVQZ
max_scf_cycles 200
thresh 14
scf_convergence 8
scf_algorithm gdm
symmetry false
sym_ignore true
unrestricted true
gen_scfman true
internal_stability_iter 15
internal_stability_davidson_iter 200
mem_total 128000
cc_memory 96000
cc_backend xm
mem_static 1500
n_frozen_core 0
$end


--------------------------------------------------------------
 ----------------------------------------------------------------
             Standard Nuclear Orientation (Angstroms)
    I     Atom           X                Y                Z
 ----------------------------------------------------------------
    1      C       0.0000000000     0.0000002206     0.0716704292
    2      H       0.0000000000     1.0378118041    -0.2899567231
    3      H       0.8987709644    -0.5189060123    -0.2899568531
    4      H      -0.8987709644    -0.5189060124    -0.2899568531
 ----------------------------------------------------------------
 Nuclear Repulsion Energy =     9.5502165999 hartrees
 There are        5 alpha and        5 beta electrons
 Requested basis set is aug-cc-pCVQZ
 There are 71 shells and 247 basis functions
 Total memory of 128000MB is distributed as follows: 
   QALLOC including MEM_STATIC uses 32000MB
   MEM_STATIC is set to 1500MB
   CCMAN JOB total memory use is  96000MB
 Warning: actual memory use might exceed 128000MB

 Total QAlloc Memory Limit  32000 MB
 Mega-Array Size      1467 MB
 MEM_STATIC part      1500 MB

                       Distance Matrix (Angstroms)
             C (  1)   H (  2)   H (  3)
   H (  2)  1.099012
   H (  3)  1.099012  1.797543
   H (  4)  1.099012  1.797543  1.797542
 
 A cutoff of  1.0D-14 yielded   2556 shell pairs
 There are     31120 function pairs (     47305 Cartesian)
 
 -------------------------------------------------------
 OpenMP Integral Computing Module                       
 Release: version 1.0, May 2013, Q-Chem Inc. Pittsburgh 
 -------------------------------------------------------
 Integral Job Info:
 Integral job number is                      11
 Integral operator is                         1
 short-range coefficients                     0
 long-range coefficients              100000000
 Omega coefficients                           0
 if combine SR and LR in K                    0
 Integral screening is                        0
 Integral computing path is                   2
 max size of driver memory is           3200000
 size of driver memory is               1704330
 size of scratch memory is             18511652
 max col of scratch BK array              50625
 max len of scratch array in speh3         2114
 max len of scratch index in speh4           50
 max int batch size is                      520
 min int batch size is                       52
 fixed nKL is                                52
 max L of basis functions is                  4
 order of int derivative is                   0
 number of shells is                         71
 number of basis is                         304
 number of cartesian basis is               304
 number of contracted shell pairs          2556
 number of primitive shell pairs           4521
 maxK2 (contraction) of shell pair           81
 max number of K2 of shell pair               1
 max number of CS2 of shell pair            364
 max number of PS2 of shell pair            369
 mem total for path MDJ                  671149
 -------------------------------------------------------
 Smallest overlap matrix eigenvalue = 2.97E-05

 Scale SEOQF with 1.000000e-01/1.000000e-01/1.000000e-01

 Standard Electronic Orientation quadrupole field applied
 Nucleus-field energy     =     0.0000000001 hartrees
 Guess from superposition of atomic densities
 Warning:  Energy on first SCF cycle will be non-variational
 SAD guess density has 9.000000 electrons

 -----------------------------------------------------------------------
  General SCF calculation program by
  Eric Jon Sundstrom, Paul Horn, Yuezhi Mao, Dmitri Zuev, Alec White,
  David Stuck, Shaama M.S., Shane Yost, Joonho Lee, David Small,
  Daniel Levine, Susi Lehtola, Hugh Burton, Evgeny Epifanovsky
 -----------------------------------------------------------------------
Running Object-Oriented UHF
performing a single roothaan step with Fock from read density so that orbitals are available to all algorithms
energy of the guess density (C=0) -39.451822586572
We will preform up to 15 macro iterations over saddle points until a stable solution is found
Energy prior to optimization (guess energy) = -39.455457378703
Begin Timing: Total SCF Calculation
Begin Timing: SCF Single Stationary Point Calculation
begin iterations for algorithm: GDM          
the SCF tolerance is set to 1.00e-08
    1     -39.4554573787      1.17e-01     00000  Descent step
    2     -39.5198006899      2.11e-02     00000  Normal BFGS step
    3     -39.5250450794      1.05e-02     00000  Normal BFGS step
    4     -39.5257433326      5.07e-03     00000  Normal BFGS step
    5     -39.5258836901      1.36e-03     00000  Normal BFGS step
    6     -39.5259024756      7.63e-04     00000  Normal BFGS step
    7     -39.5259054463      3.65e-04     00000  Normal BFGS step
    8     -39.5259059020      1.66e-04     00000  Normal BFGS step
    9     -39.5259060495      3.57e-05     00000  Normal BFGS step
   10     -39.5259060755      1.97e-05     00000  Normal BFGS step
   11     -39.5259060789      7.25e-06     00000  Normal BFGS step
   12     -39.5259060792      2.21e-06     00000  Normal BFGS step
   13     -39.5259060792      4.68e-07     00000  Normal BFGS step
   14     -39.5259060792      1.35e-07     00000  Normal BFGS step
   15     -39.5259060792      4.18e-08     00000  Normal BFGS step
   16     -39.5259060792      1.03e-08     00000  Normal BFGS step
   17     -39.5259060792      1.57e-09     00000 Convergence criterion met
Timing for Single Stationary Point: 92.00s (wall), 1331.58s (cpu)
Begin Timing: Stability
===================================================
Beginning Test for Internal Stability
===================================================
generating davidson guess vectors based on koopmans excitations
    1      9.90e-01     00000 Davidson Iteration
    2      3.91e-01     00000 Davidson Iteration
    3      1.99e-01     00000 Davidson Iteration
    4      3.36e-02     00000 Davidson Iteration
    5      5.21e-03     00000 Davidson Iteration
    6      5.19e-03     00000 Davidson Iteration
    7      5.27e-03     00000 Davidson Iteration
    8      4.86e-03     00000 Davidson Iteration
    9      2.32e-03     00000 Davidson Iteration
   10      4.19e-04     00000 Davidson Iteration
   11      7.08e-05     00000 Davidson Iteration
   12      5.58e-05     00000 Davidson Converged
converged_eigenvalues
   0.0672
   0.0013
Threshold for negative eigenvalues: -1.0e-05
solution was a local minimum (stable)
===================================================
End Test for Internal Stability
===================================================
Our SCF solution is stable!
Timing for Total SCF: 215.00s (wall), 3222.10s (cpu)
 Total energy in the final basis set =      -39.5259060792
<S^2> =         -0.000000000
    ==================================================
              The end of Object-Oriented SCFman       
    ==================================================


 ------------------------------------------------------------------------------

   CCMAN2: suite of methods based on coupled cluster
           and equation of motion theories.

   Components:
   * libvmm-1.3-trunk
     by Evgeny Epifanovsky, Ilya Kaliman.
   * libtensor-2.5-trunk
     by Evgeny Epifanovsky, Michael Wormit, Dmitry Zuev, Sam Manzer, 
        Ilya Kaliman.
   * libcc-2.5-trunk
     by Evgeny Epifanovsky, Arik Landau, Tomasz Kus, Kirill Khistyaev, 
        Dmitry Zuev, Prashant Manohar, Xintian Feng, Anna Krylov, 
        Matthew Goldey, Alec White, Thomas Jagau, Kaushik Nanda, 
        Anastasia Gunina, Alexander Kunitsa, Joonho Lee.

   CCMAN original authors:
   Anna I. Krylov, C. David Sherrill, Steven R. Gwaltney,
   Edward F. C. Byrd (2000)
   Sergey V. Levchenko, Lyudmila V. Slipchenko, Tao Wang,
   Ana-Maria C. Cristian (2003)
   Piotr A. Pieniazek, C. Melania Oana, Evgeny Epifanovsky (2007)
   Prashant Manohar (2009)

 ------------------------------------------------------------------------------


 Calculation will run on 16 cores using libxm for tensor contractions

 ------------------------------------------------------------------------------
Libxm Tensor Library
Copyright (c) 2014-2018 Ilya Kaliman
https://github.com/ilyak/libxm
Reference: https://dx.doi.org/10.1002/jcc.24713
 ------------------------------------------------------------------------------

 
 Alpha MOs, Unrestricted
 -- Occupied --                  
-10.939  -0.625  -0.272  -0.272  -0.023
  1 A     2 A     3 A     4 A     5 A                                          
 -- Virtual --                   
  0.144   0.149   0.149   0.223   0.243   0.243   0.278   0.341
  6 A     7 A     8 A     9 A    10 A    11 A    12 A    13 A                  
  0.341   0.389   0.389   0.393   0.434   0.435   0.440   0.440
 14 A    15 A    16 A    17 A    18 A    19 A    20 A    21 A                  
  0.455   0.458   0.458   0.494   0.494   0.520   0.592   0.592
 22 A    23 A    24 A    25 A    26 A    27 A    28 A    29 A                  
  0.721   0.739   0.739   0.790   0.794   0.794   0.874   0.886
 30 A    31 A    32 A    33 A    34 A    35 A    36 A    37 A                  
  0.909   0.909   0.935   0.935   0.941   0.958   0.979   0.979
 38 A    39 A    40 A    41 A    42 A    43 A    44 A    45 A                  
  1.000   1.000   1.005   1.024   1.024   1.043   1.128   1.134
 46 A    47 A    48 A    49 A    50 A    51 A    52 A    53 A                  
  1.134   1.205   1.205   1.298   1.298   1.298   1.350   1.390
 54 A    55 A    56 A    57 A    58 A    59 A    60 A    61 A                  
  1.424   1.424   1.592   1.618   1.663   1.663   1.728   1.728
 62 A    63 A    64 A    65 A    66 A    67 A    68 A    69 A                  
  1.753   1.829   1.829   1.953   1.953   1.960   1.996   2.033
 70 A    71 A    72 A    73 A    74 A    75 A    76 A    77 A                  
  2.033   2.054   2.071   2.071   2.117   2.139   2.139   2.212
 78 A    79 A    80 A    81 A    82 A    83 A    84 A    85 A                  
  2.228   2.228   2.259   2.274   2.274   2.287   2.287   2.290
 86 A    87 A    88 A    89 A    90 A    91 A    92 A    93 A                  
  2.354   2.399   2.399   2.552   2.625   2.625   2.626   2.700
 94 A    95 A    96 A    97 A    98 A    99 A   100 A   101 A                  
  2.711   2.711   2.819   2.870   2.870   2.927   2.927   2.961
102 A   103 A   104 A   105 A   106 A   107 A   108 A   109 A                  
  2.978   3.016   3.016   3.019   3.076   3.076   3.250   3.250
110 A   111 A   112 A   113 A   114 A   115 A   116 A   117 A                  
  3.317   3.384   3.384   3.635   3.635   3.635   3.756   3.827
118 A   119 A   120 A   121 A   122 A   123 A   124 A   125 A                  
  3.995   3.995   4.048   4.048   4.049   4.156   4.237   4.268
126 A   127 A   128 A   129 A   130 A   131 A   132 A   133 A                  
  4.268   4.368   4.368   4.456   4.456   4.534   4.534   4.730
134 A   135 A   136 A   137 A   138 A   139 A   140 A   141 A                  
  4.894   4.904   4.904   5.148   5.970   6.200   6.200   6.324
142 A   143 A   144 A   145 A   146 A   147 A   148 A   149 A                  
  6.324   6.484   6.484   6.493   6.498   6.715   6.715   6.715
150 A   151 A   152 A   153 A   154 A   155 A   156 A   157 A                  
  6.922   6.974   6.974   7.006   7.065   7.107   7.107   7.184
158 A   159 A   160 A   161 A   162 A   163 A   164 A   165 A                  
  7.184   7.276   7.276   7.332   7.450   7.523   7.523   7.630
166 A   167 A   168 A   169 A   170 A   171 A   172 A   173 A                  
  7.850   7.971   7.971   8.050   8.050   8.116   8.389   8.389
174 A   175 A   176 A   177 A   178 A   179 A   180 A   181 A                  
  8.512   8.527   8.527   8.722   8.783   8.783   8.884   8.884
182 A   183 A   184 A   185 A   186 A   187 A   188 A   189 A                  
  9.154   9.240   9.397   9.397   9.461   9.520   9.520   9.613
190 A   191 A   192 A   193 A   194 A   195 A   196 A   197 A                  
  9.613   9.614   9.837   9.838   9.838  10.208  10.320  10.320
198 A   199 A   200 A   201 A   202 A   203 A   204 A   205 A                  
 10.407  10.489  10.489  10.881  10.881  10.893  11.022  11.022
206 A   207 A   208 A   209 A   210 A   211 A   212 A   213 A                  
 11.610  11.665  13.119  13.119  14.492  20.243  21.498  21.498
214 A   215 A   216 A   217 A   218 A   219 A   220 A   221 A                  
 27.439  27.439  27.727  28.348  28.348  38.273  67.562  68.508
222 A   223 A   224 A   225 A   226 A   227 A   228 A   229 A                  
 68.508  99.131  99.152  99.152  99.170  99.170  99.176  99.211
230 A   231 A   232 A   233 A   234 A   235 A   236 A   237 A                  
115.867 115.867 115.994 116.323 116.323 124.328 225.900 226.678
238 A   239 A   240 A   241 A   242 A   243 A   244 A   245 A                  
226.678 510.617
246 A   247 A                                                                  
 
 Beta MOs, Unrestricted
 -- Occupied --                  
-10.939  -0.625  -0.272  -0.272  -0.023
  1 A     2 A     3 A     4 A     5 A                                          
 -- Virtual --                   
  0.144   0.149   0.149   0.223   0.243   0.243   0.278   0.341
  6 A     7 A     8 A     9 A    10 A    11 A    12 A    13 A                  
  0.341   0.389   0.389   0.393   0.434   0.435   0.440   0.440
 14 A    15 A    16 A    17 A    18 A    19 A    20 A    21 A                  
  0.455   0.458   0.458   0.494   0.494   0.520   0.592   0.592
 22 A    23 A    24 A    25 A    26 A    27 A    28 A    29 A                  
  0.721   0.739   0.739   0.790   0.794   0.794   0.874   0.886
 30 A    31 A    32 A    33 A    34 A    35 A    36 A    37 A                  
  0.909   0.909   0.935   0.935   0.941   0.958   0.979   0.979
 38 A    39 A    40 A    41 A    42 A    43 A    44 A    45 A                  
  1.000   1.000   1.005   1.024   1.024   1.043   1.128   1.134
 46 A    47 A    48 A    49 A    50 A    51 A    52 A    53 A                  
  1.134   1.205   1.205   1.298   1.298   1.298   1.350   1.390
 54 A    55 A    56 A    57 A    58 A    59 A    60 A    61 A                  
  1.424   1.424   1.592   1.618   1.663   1.663   1.728   1.728
 62 A    63 A    64 A    65 A    66 A    67 A    68 A    69 A                  
  1.753   1.829   1.829   1.953   1.953   1.960   1.996   2.033
 70 A    71 A    72 A    73 A    74 A    75 A    76 A    77 A                  
  2.033   2.054   2.071   2.071   2.117   2.139   2.139   2.212
 78 A    79 A    80 A    81 A    82 A    83 A    84 A    85 A                  
  2.228   2.228   2.259   2.274   2.274   2.287   2.287   2.290
 86 A    87 A    88 A    89 A    90 A    91 A    92 A    93 A                  
  2.354   2.399   2.399   2.552   2.625   2.625   2.626   2.700
 94 A    95 A    96 A    97 A    98 A    99 A   100 A   101 A                  
  2.711   2.711   2.819   2.870   2.870   2.927   2.927   2.961
102 A   103 A   104 A   105 A   106 A   107 A   108 A   109 A                  
  2.978   3.016   3.016   3.019   3.076   3.076   3.250   3.250
110 A   111 A   112 A   113 A   114 A   115 A   116 A   117 A                  
  3.317   3.384   3.384   3.635   3.635   3.635   3.756   3.827
118 A   119 A   120 A   121 A   122 A   123 A   124 A   125 A                  
  3.995   3.995   4.048   4.048   4.049   4.156   4.237   4.268
126 A   127 A   128 A   129 A   130 A   131 A   132 A   133 A                  
  4.268   4.368   4.368   4.456   4.456   4.534   4.534   4.730
134 A   135 A   136 A   137 A   138 A   139 A   140 A   141 A                  
  4.894   4.904   4.904   5.148   5.970   6.200   6.200   6.324
142 A   143 A   144 A   145 A   146 A   147 A   148 A   149 A                  
  6.324   6.484   6.484   6.493   6.498   6.715   6.715   6.715
150 A   151 A   152 A   153 A   154 A   155 A   156 A   157 A                  
  6.922   6.974   6.974   7.006   7.065   7.107   7.107   7.184
158 A   159 A   160 A   161 A   162 A   163 A   164 A   165 A                  
  7.184   7.276   7.276   7.332   7.450   7.523   7.523   7.630
166 A   167 A   168 A   169 A   170 A   171 A   172 A   173 A                  
  7.850   7.971   7.971   8.050   8.050   8.116   8.389   8.389
174 A   175 A   176 A   177 A   178 A   179 A   180 A   181 A                  
  8.512   8.527   8.527   8.722   8.783   8.783   8.884   8.884
182 A   183 A   184 A   185 A   186 A   187 A   188 A   189 A                  
  9.154   9.240   9.397   9.397   9.461   9.520   9.520   9.613
190 A   191 A   192 A   193 A   194 A   195 A   196 A   197 A                  
  9.613   9.614   9.837   9.838   9.838  10.208  10.320  10.320
198 A   199 A   200 A   201 A   202 A   203 A   204 A   205 A                  
 10.407  10.489  10.489  10.881  10.881  10.893  11.022  11.022
206 A   207 A   208 A   209 A   210 A   211 A   212 A   213 A                  
 11.610  11.665  13.119  13.119  14.492  20.243  21.498  21.498
214 A   215 A   216 A   217 A   218 A   219 A   220 A   221 A                  
 27.439  27.439  27.727  28.348  28.348  38.273  67.562  68.508
222 A   223 A   224 A   225 A   226 A   227 A   228 A   229 A                  
 68.508  99.131  99.152  99.152  99.170  99.170  99.176  99.211
230 A   231 A   232 A   233 A   234 A   235 A   236 A   237 A                  
115.867 115.867 115.994 116.323 116.323 124.328 225.900 226.678
238 A   239 A   240 A   241 A   242 A   243 A   244 A   245 A                  
226.678 510.617
246 A   247 A                                                                  

 Occupation and symmetry of molecular orbitals

 Point group: C1 (1 irreducible representation).

                           A     All 
 -------------------------------------
 All molecular orbitals:
  - Alpha                  247   247 
  - Beta                   247   247 
 -------------------------------------
 Alpha orbitals:
  - Frozen occupied        0     0   
  - Active occupied        5     5   
  - Active virtual         242   242 
  - Frozen virtual         0     0   
 -------------------------------------
 Beta orbitals:
  - Frozen occupied        0     0   
  - Active occupied        5     5   
  - Active virtual         242   242 
  - Frozen virtual         0     0   
 -------------------------------------

 Import integrals:   CPU 0.00 s  wall 0.00 s

 Import integrals:   CPU 3863.16 s  wall 693.55 s

 MP2 amplitudes:   CPU 4.33 s  wall 9.48 s

Running a double precision version
           CCSD T amplitudes will be solved using DIIS.

           Start     Size      MaxIter   EConv     TConv     
           3         7         100       1.00e-06  1.00e-04  
 ------------------------------------------------------------------------------
           Energy (a.u.)   Ediff      Tdiff       Comment
 ------------------------------------------------------------------------------
           -39.80562709                           
     1     -39.80980683   4.18e-03   5.04e-01     Step took 02.56.
     2     -39.81642687   6.62e-03   5.70e-02     
     3     -39.81668275   2.56e-04   2.31e-02     
     4     -39.81719749   5.15e-04   8.24e-03     Switched to DIIS steps.
     5     -39.81748858   2.91e-04   5.79e-03     
     6     -39.81750700   1.84e-05   1.88e-03     
     7     -39.81749856   8.44e-06   8.33e-04     
     8     -39.81749971   1.14e-06   4.32e-04     
     9     -39.81750006   3.50e-07   1.94e-04     
    10     -39.81749911   9.43e-07   5.74e-05     
 ------------------------------------------------------------------------------
           -39.81749911                           CCSD T converged.

End of double precision

----------------------------------------
libpt (c) 2016-2018 Ilya Kaliman
Fast Coupled Cluster Triples Corrections
https://github.com/ilyak/libpt
----------------------------------------

 Starting (T) calculation...
 Using double precision libpt code
 (T) calculation completed in 54 sec
 (T) energy is -0.0109253234

 SCF energy                 = -39.52590608
 MP2 energy                 = -39.80562709
 CCSD correlation energy     =  -0.29159303
 CCSD total energy           = -39.81749911
 CCSD(T) correlation energy =  -0.01092532
 CCSD(T) total energy       = -39.82842444

 CCSD  T1^2 = 0.0027  T2^2 = 0.1031  Leading amplitudes:

 Amplitude    Orbitals with energies
 -0.0161       5 (A) A                   ->    9 (A) A                    
              -0.0231                          0.2228                     
  0.0161       5 (A) B                   ->    9 (A) B                    
              -0.0231                          0.2228                     
  0.0106       5 (A) A                   ->    17 (A) A                   
              -0.0231                          0.3931                     
 -0.0106       5 (A) B                   ->    17 (A) B                   
              -0.0231                          0.3931                     

 Amplitude    Orbitals with energies
  0.0525       5 (A) A       5 (A) B     ->    9 (A) A       9 (A) B      
              -0.0231       -0.0231            0.2228        0.2228       
 -0.0525       5 (A) A       5 (A) B     ->    9 (A) B       9 (A) A      
              -0.0231       -0.0231            0.2228        0.2228       
 -0.0525       5 (A) B       5 (A) A     ->    9 (A) A       9 (A) B      
              -0.0231       -0.0231            0.2228        0.2228       
  0.0525       5 (A) B       5 (A) A     ->    9 (A) B       9 (A) A      
              -0.0231       -0.0231            0.2228        0.2228       

 CCSD calculation:   CPU 4086.62 s  wall 582.35 s

 Total ccman2 time:   CPU 8020.17 s  wall 1341.50 s

 
 --------------------------------------------------------------
 
                    Orbital Energies (a.u.)
 --------------------------------------------------------------
 
 Alpha MOs
 -- Occupied --
-10.939  -0.625  -0.272  -0.272  -0.023
 -- Virtual --
  0.144   0.149   0.149   0.223   0.243   0.243   0.278   0.341
  0.341   0.389   0.389   0.393   0.434   0.435   0.440   0.440
  0.455   0.458   0.458   0.494   0.494   0.520   0.592   0.592
  0.721   0.739   0.739   0.790   0.794   0.794   0.874   0.886
  0.909   0.909   0.935   0.935   0.941   0.958   0.979   0.979
  1.000   1.000   1.005   1.024   1.024   1.043   1.128   1.134
  1.134   1.205   1.205   1.298   1.298   1.298   1.350   1.390
  1.424   1.424   1.592   1.618   1.663   1.663   1.728   1.728
  1.753   1.829   1.829   1.953   1.953   1.960   1.996   2.033
  2.033   2.054   2.071   2.071   2.117   2.139   2.139   2.212
  2.228   2.228   2.259   2.274   2.274   2.287   2.287   2.290
  2.354   2.399   2.399   2.552   2.625   2.625   2.626   2.700
  2.711   2.711   2.819   2.870   2.870   2.927   2.927   2.961
  2.978   3.016   3.016   3.019   3.076   3.076   3.250   3.250
  3.317   3.384   3.384   3.635   3.635   3.635   3.756   3.827
  3.995   3.995   4.048   4.048   4.049   4.156   4.237   4.268
  4.268   4.368   4.368   4.456   4.456   4.534   4.534   4.730
  4.894   4.904   4.904   5.148   5.970   6.200   6.200   6.324
  6.324   6.484   6.484   6.493   6.498   6.715   6.715   6.715
  6.922   6.974   6.974   7.006   7.065   7.107   7.107   7.184
  7.184   7.276   7.276   7.332   7.450   7.523   7.523   7.630
  7.850   7.971   7.971   8.050   8.050   8.116   8.389   8.389
  8.512   8.527   8.527   8.722   8.783   8.783   8.884   8.884
  9.154   9.240   9.397   9.397   9.461   9.520   9.520   9.613
  9.613   9.614   9.837   9.838   9.838  10.208  10.320  10.320
 10.407  10.489  10.489  10.881  10.881  10.893  11.022  11.022
 11.610  11.665  13.119  13.119  14.492  20.243  21.498  21.498
 27.439  27.439  27.727  28.348  28.348  38.273  67.562  68.508
 68.508  99.131  99.152  99.152  99.170  99.170  99.176  99.211
115.867 115.867 115.994 116.323 116.323 124.328 225.900 226.678
226.678 510.617
 
 Beta MOs
 -- Occupied --
-10.939  -0.625  -0.272  -0.272  -0.023
 -- Virtual --
  0.144   0.149   0.149   0.223   0.243   0.243   0.278   0.341
  0.341   0.389   0.389   0.393   0.434   0.435   0.440   0.440
  0.455   0.458   0.458   0.494   0.494   0.520   0.592   0.592
  0.721   0.739   0.739   0.790   0.794   0.794   0.874   0.886
  0.909   0.909   0.935   0.935   0.941   0.958   0.979   0.979
  1.000   1.000   1.005   1.024   1.024   1.043   1.128   1.134
  1.134   1.205   1.205   1.298   1.298   1.298   1.350   1.390
  1.424   1.424   1.592   1.618   1.663   1.663   1.728   1.728
  1.753   1.829   1.829   1.953   1.953   1.960   1.996   2.033
  2.033   2.054   2.071   2.071   2.117   2.139   2.139   2.212
  2.228   2.228   2.259   2.274   2.274   2.287   2.287   2.290
  2.354   2.399   2.399   2.552   2.625   2.625   2.626   2.700
  2.711   2.711   2.819   2.870   2.870   2.927   2.927   2.961
  2.978   3.016   3.016   3.019   3.076   3.076   3.250   3.250
  3.317   3.384   3.384   3.635   3.635   3.635   3.756   3.827
  3.995   3.995   4.048   4.048   4.049   4.156   4.237   4.268
  4.268   4.368   4.368   4.456   4.456   4.534   4.534   4.730
  4.894   4.904   4.904   5.148   5.970   6.200   6.200   6.324
  6.324   6.484   6.484   6.493   6.498   6.715   6.715   6.715
  6.922   6.974   6.974   7.006   7.065   7.107   7.107   7.184
  7.184   7.276   7.276   7.332   7.450   7.523   7.523   7.630
  7.850   7.971   7.971   8.050   8.050   8.116   8.389   8.389
  8.512   8.527   8.527   8.722   8.783   8.783   8.884   8.884
  9.154   9.240   9.397   9.397   9.461   9.520   9.520   9.613
  9.613   9.614   9.837   9.838   9.838  10.208  10.320  10.320
 10.407  10.489  10.489  10.881  10.881  10.893  11.022  11.022
 11.610  11.665  13.119  13.119  14.492  20.243  21.498  21.498
 27.439  27.439  27.727  28.348  28.348  38.273  67.562  68.508
 68.508  99.131  99.152  99.152  99.170  99.170  99.176  99.211
115.867 115.867 115.994 116.323 116.323 124.328 225.900 226.678
226.678 510.617
 --------------------------------------------------------------
 
          Ground-State Mulliken Net Atomic Charges

     Atom                 Charge (a.u.)    Spin (a.u.)
  --------------------------------------------------------
      1 C                    -1.704339      -0.000000
      2 H                     0.234780       0.000000
      3 H                     0.234780      -0.000000
      4 H                     0.234780       0.000000
  --------------------------------------------------------
  Sum of atomic charges =    -1.000000
  Sum of spin   charges =    -0.000000

 -----------------------------------------------------------------
                    Cartesian Multipole Moments
 -----------------------------------------------------------------
    Charge (ESU x 10^10)
                -4.8032
    Dipole Moment (Debye)
         X       0.0000      Y      -0.0000      Z      -1.6537
       Tot       1.6537
    Quadrupole Moments (Debye-Ang)
        XX     -13.0206     XY       0.0000     YY     -13.0206
        XZ      -0.0000     YZ       0.0000     ZZ     -20.2320
    Octopole Moments (Debye-Ang^2)
       XXX       0.0000    XXY      -0.0614    XYY       0.0000
       YYY       0.0614    XXZ      -1.3053    XYZ       0.0000
       YYZ      -1.3053    XZZ       0.0000    YZZ      -0.0000
       ZZZ      -4.7206
    Hexadecapole Moments (Debye-Ang^3)
      XXXX     -36.5923   XXXY      -0.0000   XXYY     -12.1974
      XYYY      -0.0000   YYYY     -36.5923   XXXZ      -0.0000
      XXYZ       0.0057   XYYZ      -0.0000   YYYZ      -0.0057
      XXZZ     -20.9251   XYZZ      -0.0000   YYZZ     -20.9251
      XZZZ      -0.0000   YZZZ       0.0000   ZZZZ     -87.2360
 -----------------------------------------------------------------
Archival summary:
1\1\n0091.mhg0\SP\ProcedureUnspecified\BasisUnspecified\13(1-,1)\yhljason\MonSep2101:33:302020MonSep2101:33:302020\0\\#,ProcedureUnspecified,BasisUnspecified,\\-1,1\C\H,1,1.09901\H,1,1.09901,2,109.73\H,1,1.09901,2,109.73,3,-120.64,0\\HF=-39.5259061\\@

 Total job time:  1710.66s(wall), 11363.80s(cpu) 
 Mon Sep 21 01:33:30 2020

        *************************************************************
        *                                                           *
        *  Thank you very much for using Q-Chem.  Have a nice day.  *
        *                                                           *
        *************************************************************


 
User input: 2 of 3 
 
Q-Chem Developer Version!
                  Welcome to Q-Chem
     A Quantum Leap Into The Future Of Chemistry


 Q-Chem 5.1, Q-Chem, Inc., Pleasanton, CA (2018)

 Yihan Shao,  Zhengting Gan,  E. Epifanovsky,  A. T. B. Gilbert,  M. Wormit,  
 J. Kussmann,  A. W. Lange,  A. Behn,  Jia Deng,  Xintian Feng,  D. Ghosh,  
 M. Goldey,  P. R. Horn,  L. D. Jacobson,  I. Kaliman,  T. Kus,  A. Landau,  
 Jie Liu,  E. I. Proynov,  R. M. Richard,  R. P. Steele,  E. J. Sundstrom,  
 H. L. Woodcock III,  P. M. Zimmerman,  D. Zuev,  B. Albrecht,  E. Alguire,  
 S. A. Baeppler,  D. Barton,  Z. Benda,  Y. A. Bernard,  E. J. Berquist,  
 K. B. Bravaya,  H. Burton,  D. Casanova,  Chun-Min Chang,  Yunqing Chen,  
 A. Chien,  K. D. Closser,  M. P. Coons,  S. Coriani,  S. Dasgupta,  
 A. L. Dempwolff,  M. Diedenhofen,  Hainam Do,  R. G. Edgar,  Po-Tung Fang,  
 S. Faraji,  S. Fatehi,  Qingguo Feng,  K. D. Fenk,  J. Fosso-Tande,  
 Qinghui Ge,  A. Ghysels,  G. Gidofalvi,  J. Gomes,  J. Gonthier,  A. Gunina,  
 D. Hait,  M. W. D. Hanson-Heine,  P. H. P. Harbach,  A. W. Hauser,  
 J. E. Herr,  E. G. Hohenstein,  Z. C. Holden,  Kerwin Hui,  B. C. Huynh,  
 T.-C. Jagau,  Hyunjun Ji,  B. Kaduk,  K. Khistyaev,  Jaehoon Kim,  
 P. Klunzinger,  K. Koh,  D. Kosenkov,  L. Koulias,  T. Kowalczyk,  
 C. M. Krauter,  A. Kunitsa,  Ka Un Lao,  A. Laurent,  K. V. Lawler,  
 Joonho Lee,  D. Lefrancois,  S. Lehtola,  D. S. Levine,  Yi-Pei Li,  
 You-Sheng Lin,  Fenglai Liu,  E. Livshits,  A. Luenser,  P. Manohar,  
 E. Mansoor,  S. F. Manzer,  Shan-Ping Mao,  Yuezhi Mao,  N. Mardirossian,  
 A. V. Marenich,  T. Markovich,  L. A. Martinez-Martinez,  S. A. Maurer,  
 N. J. Mayhall,  S. C. McKenzie,  J.-M. Mewes,  A. F. Morrison,  
 J. W. Mullinax,  K. Nanda,  T. S. Nguyen-Beck,  R. Olivares-Amaya,  
 J. A. Parkhill,  T. M. Perrine,  F. Plasser,  P. Pokhilko,  S. Prager,  
 A. Prociuk,  E. Ramos,  D. R. Rehn,  F. Rob,  M. Schneider,  N. Sergueev,  
 S. M. Sharada,  S. Sharma,  D. W. Small,  T. Stauch,  T. Stein,  
 Yu-Chuan Su,  A. J. W. Thom,  A. Tkatchenko,  T. Tsuchimochi,  N. M. Tubman,  
 L. Vogt,  M. L. Vidal,  O. Vydrov,  M. A. Watson,  J. Wenzel,  
 M. de Wergifosse,  T. A. Wesolowski,  A. White,  J. Witte,  A. Yamada,  
 Jun Yang,  K. Yao,  S. Yeganeh,  S. R. Yost,  Zhi-Qiang You,  A. Zech,  
 Igor Ying Zhang,  Xing Zhang,  Yan Zhao,  Ying Zhu,  B. R. Brooks,  
 G. K. L. Chan,  C. J. Cramer,  M. S. Gordon,  W. J. Hehre,  A. Klamt,  
 M. W. Schmidt,  C. D. Sherrill,  D. G. Truhlar,  A. Aspuru-Guzik,  R. Baer,  
 A. T. Bell,  N. A. Besley,  Jeng-Da Chai,  A. E. DePrince, III,  
 R. A. DiStasio Jr.,  A. Dreuw,  B. D. Dunietz,  T. R. Furlani,  
 Chao-Ping Hsu,  Yousung Jung,  Jing Kong,  D. S. Lambrecht,  WanZhen Liang,  
 C. Ochsenfeld,  V. A. Rassolov,  L. V. Slipchenko,  J. E. Subotnik,  
 T. Van Voorhis,  J. M. Herbert,  A. I. Krylov,  P. M. W. Gill,  M. Head-Gordon

 Contributors to earlier versions of Q-Chem not listed above: 
 R. D. Adamson,  B. Austin,  J. Baker,  G. J. O. Beran,  K. Brandhorst,  
 S. T. Brown,  E. F. C. Byrd,  A. K. Chakraborty,  C.-L. Cheng,  
 Siu Hung Chien,  D. M. Chipman,  D. L. Crittenden,  H. Dachsel,  
 R. J. Doerksen,  A. D. Dutoi,  L. Fusti-Molnar,  W. A. Goddard III,  
 A. Golubeva-Zadorozhnaya,  S. R. Gwaltney,  G. Hawkins,  A. Heyden,  
 S. Hirata,  G. Kedziora,  F. J. Keil,  C. Kelley,  Jihan Kim,  R. A. King,  
 R. Z. Khaliullin,  P. P. Korambath,  W. Kurlancheek,  A. M. Lee,  M. S. Lee,  
 S. V. Levchenko,  Ching Yeh Lin,  D. Liotard,  R. C. Lochan,  I. Lotan,  
 P. E. Maslen,  N. Nair,  D. P. O'Neill,  D. Neuhauser,  E. Neuscamman,  
 C. M. Oana,  R. Olson,  B. Peters,  R. Peverati,  P. A. Pieniazek,  
 Y. M. Rhee,  J. Ritchie,  M. A. Rohrdanz,  E. Rosta,  N. J. Russ,  
 H. F. Schaefer III,  N. E. Schultz,  N. Shenvi,  A. C. Simmonett,  A. Sodt,  
 D. Stuck,  K. S. Thanthiriwatte,  V. Vanovschi,  Tao Wang,  A. Warshel,  
 C. F. Williams,  Q. Wu,  X. Xu,  W. Zhang

 Please cite Q-Chem as follows:
 Y. Shao et al., Mol. Phys. 113, 184-215 (2015)
 DOI: 10.1080/00268976.2014.952696

 Q-Chem 5.1.1 for Intel X86 EM64T Linux

 Parts of Q-Chem use Armadillo 8.300.2 (Tropical Shenanigans).
 http://arma.sourceforge.net/

 Q-Chem begins on Mon Sep 21 01:33:31 2020  

Host: n0091.mhg0
0

     Scratch files written to /local/scratch/users/yhljason/CH3-_ccsdT_aug-cc-pcVQZ.inp20200921010457//
The previous job contains 0 fragments, simply inherited here
Input Ideriv = 0
Curr. Ideriv = -1
Max.  Ideriv = 0

Checking the input file for inconsistencies... 	...done.

--------------------------------------------------------------
User input:
--------------------------------------------------------------
$molecule
read
$end

$rem

jobtype sp
method CCSD(T)
xc_grid 000099000590
basis aug-cc-pcVQZ
max_scf_cycles 200
thresh 14
scf_convergence 8
mem_total 128000
cc_memory 96000
cc_backend xm
mem_static 1500
symmetry false
sym_ignore true
scf_guess read
unrestricted true
scf_algorithm gdm
n_frozen_core 0
$end

$multipole_field
Z 0.0001
$end


--------------------------------------------------------------
 ----------------------------------------------------------------
             Standard Nuclear Orientation (Angstroms)
    I     Atom           X                Y                Z
 ----------------------------------------------------------------
    1      C       0.0000000000     0.0000002206     0.0716704292
    2      H       0.0000000000     1.0378118041    -0.2899567231
    3      H       0.8987709644    -0.5189060123    -0.2899568531
    4      H      -0.8987709644    -0.5189060124    -0.2899568531
 ----------------------------------------------------------------
 Nuclear Repulsion Energy =     9.5502165999 hartrees
 There are        5 alpha and        5 beta electrons
 Requested basis set is aug-cc-pCVQZ
 There are 71 shells and 247 basis functions
 Total memory of 128000MB is distributed as follows: 
   QALLOC including MEM_STATIC uses 32000MB
   MEM_STATIC is set to 1500MB
   CCMAN JOB total memory use is  96000MB
 Warning: actual memory use might exceed 128000MB

 Total QAlloc Memory Limit  32000 MB
 Mega-Array Size      1467 MB
 MEM_STATIC part      1500 MB

                       Distance Matrix (Angstroms)
             C (  1)   H (  2)   H (  3)
   H (  2)  1.099012
   H (  3)  1.099012  1.797543
   H (  4)  1.099012  1.797543  1.797542
 
 Applying Cartesian multipole field
    Component          Value
    ---------          -----
     (0,0,1)        1.00000E-04
 Nucleus-field energy     =    -0.0000831192 hartrees
 A cutoff of  1.0D-14 yielded   2556 shell pairs
 There are     31120 function pairs (     47305 Cartesian)
 
 -------------------------------------------------------
 OpenMP Integral Computing Module                       
 Release: version 1.0, May 2013, Q-Chem Inc. Pittsburgh 
 -------------------------------------------------------
 Integral Job Info:
 Integral job number is                      11
 Integral operator is                         1
 short-range coefficients                     0
 long-range coefficients              100000000
 Omega coefficients                           0
 if combine SR and LR in K                    0
 Integral screening is                        0
 Integral computing path is                   2
 max size of driver memory is           3200000
 size of driver memory is               1704330
 size of scratch memory is             18511652
 max col of scratch BK array              50625
 max len of scratch array in speh3         2114
 max len of scratch index in speh4           50
 max int batch size is                      520
 min int batch size is                       52
 fixed nKL is                                52
 max L of basis functions is                  4
 order of int derivative is                   0
 number of shells is                         71
 number of basis is                         304
 number of cartesian basis is               304
 number of contracted shell pairs          2556
 number of primitive shell pairs           4521
 maxK2 (contraction) of shell pair           81
 max number of K2 of shell pair               1
 max number of CS2 of shell pair            364
 max number of PS2 of shell pair            369
 mem total for path MDJ                  671149
 -------------------------------------------------------
 Smallest overlap matrix eigenvalue = 2.97E-05
 Guess MOs from SCF MO coefficient file

 -----------------------------------------------------------------------
  General SCF calculation program by
  Eric Jon Sundstrom, Paul Horn, Yuezhi Mao, Dmitri Zuev, Alec White,
  David Stuck, Shaama M.S., Shane Yost, Joonho Lee, David Small,
  Daniel Levine, Susi Lehtola, Hugh Burton, Evgeny Epifanovsky
 -----------------------------------------------------------------------
 Hartree-Fock
 using 16 threads for integral computing
 -------------------------------------------------------
 OpenMP Integral computing Module                
 Release: version 2.0, May 2017, Q-Chem Inc. Pleasanton 
 -------------------------------------------------------
 A unrestricted SCF calculation will be
 performed using GDM
 SCF converges when RMS gradient is below 1.0e-08
 ---------------------------------------
  Cycle       Energy        RMS Gradient
 ---------------------------------------
    1     -39.5259711397      3.24e-04   Normal BFGS step
    2     -39.5259715389      2.11e-04   Normal BFGS step
    3     -39.5259717114      7.83e-05   Normal BFGS step
    4     -39.5259717439      5.53e-05   Normal BFGS step
    5     -39.5259717526      1.54e-05   Normal BFGS step
    6     -39.5259717535      2.12e-06   Normal BFGS step
    7     -39.5259717536      1.11e-06   Normal BFGS step
    8     -39.5259717536      4.15e-07   Normal BFGS step
    9     -39.5259717536      1.28e-07   Normal BFGS step
   10     -39.5259717536      3.93e-08   Normal BFGS step
   11     -39.5259717536      1.18e-08   Normal BFGS step
   12     -39.5259717536      3.57e-09  Convergence criterion met
 ---------------------------------------
 SCF time:   CPU 1053.35s  wall 67.00s 
<S^2> =          0.000000000
 SCF   energy in the final basis set =      -39.5259717536
 Total energy in the final basis set =      -39.5259717536


 ------------------------------------------------------------------------------

   CCMAN2: suite of methods based on coupled cluster
           and equation of motion theories.

   Components:
   * libvmm-1.3-trunk
     by Evgeny Epifanovsky, Ilya Kaliman.
   * libtensor-2.5-trunk
     by Evgeny Epifanovsky, Michael Wormit, Dmitry Zuev, Sam Manzer, 
        Ilya Kaliman.
   * libcc-2.5-trunk
     by Evgeny Epifanovsky, Arik Landau, Tomasz Kus, Kirill Khistyaev, 
        Dmitry Zuev, Prashant Manohar, Xintian Feng, Anna Krylov, 
        Matthew Goldey, Alec White, Thomas Jagau, Kaushik Nanda, 
        Anastasia Gunina, Alexander Kunitsa, Joonho Lee.

   CCMAN original authors:
   Anna I. Krylov, C. David Sherrill, Steven R. Gwaltney,
   Edward F. C. Byrd (2000)
   Sergey V. Levchenko, Lyudmila V. Slipchenko, Tao Wang,
   Ana-Maria C. Cristian (2003)
   Piotr A. Pieniazek, C. Melania Oana, Evgeny Epifanovsky (2007)
   Prashant Manohar (2009)

 ------------------------------------------------------------------------------


 Calculation will run on 16 cores using libxm for tensor contractions

 ------------------------------------------------------------------------------
Libxm Tensor Library
Copyright (c) 2014-2018 Ilya Kaliman
https://github.com/ilyak/libxm
Reference: https://dx.doi.org/10.1002/jcc.24713
 ------------------------------------------------------------------------------

 
 Alpha MOs, Unrestricted
 -- Occupied --                  
-10.939  -0.625  -0.272  -0.272  -0.023
  1 A     2 A     3 A     4 A     5 A                                          
 -- Virtual --                   
  0.144   0.149   0.149   0.223   0.243   0.243   0.278   0.341
  6 A     7 A     8 A     9 A    10 A    11 A    12 A    13 A                  
  0.341   0.389   0.389   0.393   0.434   0.435   0.440   0.440
 14 A    15 A    16 A    17 A    18 A    19 A    20 A    21 A                  
  0.455   0.458   0.458   0.494   0.494   0.520   0.592   0.592
 22 A    23 A    24 A    25 A    26 A    27 A    28 A    29 A                  
  0.721   0.739   0.739   0.790   0.794   0.794   0.874   0.886
 30 A    31 A    32 A    33 A    34 A    35 A    36 A    37 A                  
  0.909   0.909   0.935   0.935   0.941   0.958   0.979   0.979
 38 A    39 A    40 A    41 A    42 A    43 A    44 A    45 A                  
  1.000   1.000   1.005   1.024   1.024   1.043   1.128   1.134
 46 A    47 A    48 A    49 A    50 A    51 A    52 A    53 A                  
  1.134   1.205   1.205   1.298   1.298   1.298   1.350   1.390
 54 A    55 A    56 A    57 A    58 A    59 A    60 A    61 A                  
  1.424   1.424   1.592   1.618   1.663   1.663   1.728   1.728
 62 A    63 A    64 A    65 A    66 A    67 A    68 A    69 A                  
  1.753   1.829   1.829   1.953   1.953   1.960   1.996   2.033
 70 A    71 A    72 A    73 A    74 A    75 A    76 A    77 A                  
  2.033   2.054   2.071   2.071   2.117   2.139   2.139   2.212
 78 A    79 A    80 A    81 A    82 A    83 A    84 A    85 A                  
  2.228   2.228   2.259   2.274   2.274   2.287   2.287   2.290
 86 A    87 A    88 A    89 A    90 A    91 A    92 A    93 A                  
  2.354   2.399   2.399   2.552   2.625   2.625   2.626   2.700
 94 A    95 A    96 A    97 A    98 A    99 A   100 A   101 A                  
  2.711   2.711   2.819   2.870   2.870   2.927   2.927   2.961
102 A   103 A   104 A   105 A   106 A   107 A   108 A   109 A                  
  2.978   3.016   3.016   3.019   3.076   3.076   3.250   3.250
110 A   111 A   112 A   113 A   114 A   115 A   116 A   117 A                  
  3.317   3.384   3.384   3.634   3.635   3.635   3.756   3.827
118 A   119 A   120 A   121 A   122 A   123 A   124 A   125 A                  
  3.995   3.995   4.048   4.048   4.049   4.156   4.237   4.268
126 A   127 A   128 A   129 A   130 A   131 A   132 A   133 A                  
  4.268   4.368   4.368   4.456   4.456   4.534   4.534   4.730
134 A   135 A   136 A   137 A   138 A   139 A   140 A   141 A                  
  4.894   4.904   4.904   5.148   5.970   6.200   6.200   6.324
142 A   143 A   144 A   145 A   146 A   147 A   148 A   149 A                  
  6.324   6.484   6.484   6.493   6.498   6.715   6.715   6.715
150 A   151 A   152 A   153 A   154 A   155 A   156 A   157 A                  
  6.922   6.974   6.974   7.006   7.065   7.107   7.107   7.184
158 A   159 A   160 A   161 A   162 A   163 A   164 A   165 A                  
  7.184   7.276   7.276   7.332   7.450   7.523   7.523   7.630
166 A   167 A   168 A   169 A   170 A   171 A   172 A   173 A                  
  7.850   7.971   7.971   8.050   8.050   8.116   8.389   8.389
174 A   175 A   176 A   177 A   178 A   179 A   180 A   181 A                  
  8.512   8.527   8.527   8.722   8.783   8.783   8.884   8.884
182 A   183 A   184 A   185 A   186 A   187 A   188 A   189 A                  
  9.154   9.240   9.397   9.397   9.461   9.520   9.520   9.613
190 A   191 A   192 A   193 A   194 A   195 A   196 A   197 A                  
  9.613   9.614   9.837   9.838   9.838  10.208  10.320  10.320
198 A   199 A   200 A   201 A   202 A   203 A   204 A   205 A                  
 10.407  10.489  10.489  10.881  10.881  10.893  11.022  11.022
206 A   207 A   208 A   209 A   210 A   211 A   212 A   213 A                  
 11.610  11.665  13.119  13.119  14.492  20.243  21.498  21.498
214 A   215 A   216 A   217 A   218 A   219 A   220 A   221 A                  
 27.439  27.439  27.727  28.348  28.348  38.273  67.562  68.508
222 A   223 A   224 A   225 A   226 A   227 A   228 A   229 A                  
 68.508  99.131  99.152  99.152  99.170  99.170  99.176  99.211
230 A   231 A   232 A   233 A   234 A   235 A   236 A   237 A                  
115.867 115.867 115.994 116.323 116.323 124.328 225.899 226.678
238 A   239 A   240 A   241 A   242 A   243 A   244 A   245 A                  
226.678 510.617
246 A   247 A                                                                  
 
 Beta MOs, Unrestricted
 -- Occupied --                  
-10.939  -0.625  -0.272  -0.272  -0.023
  1 A     2 A     3 A     4 A     5 A                                          
 -- Virtual --                   
  0.144   0.149   0.149   0.223   0.243   0.243   0.278   0.341
  6 A     7 A     8 A     9 A    10 A    11 A    12 A    13 A                  
  0.341   0.389   0.389   0.393   0.434   0.435   0.440   0.440
 14 A    15 A    16 A    17 A    18 A    19 A    20 A    21 A                  
  0.455   0.458   0.458   0.494   0.494   0.520   0.592   0.592
 22 A    23 A    24 A    25 A    26 A    27 A    28 A    29 A                  
  0.721   0.739   0.739   0.790   0.794   0.794   0.874   0.886
 30 A    31 A    32 A    33 A    34 A    35 A    36 A    37 A                  
  0.909   0.909   0.935   0.935   0.941   0.958   0.979   0.979
 38 A    39 A    40 A    41 A    42 A    43 A    44 A    45 A                  
  1.000   1.000   1.005   1.024   1.024   1.043   1.128   1.134
 46 A    47 A    48 A    49 A    50 A    51 A    52 A    53 A                  
  1.134   1.205   1.205   1.298   1.298   1.298   1.350   1.390
 54 A    55 A    56 A    57 A    58 A    59 A    60 A    61 A                  
  1.424   1.424   1.592   1.618   1.663   1.663   1.728   1.728
 62 A    63 A    64 A    65 A    66 A    67 A    68 A    69 A                  
  1.753   1.829   1.829   1.953   1.953   1.960   1.996   2.033
 70 A    71 A    72 A    73 A    74 A    75 A    76 A    77 A                  
  2.033   2.054   2.071   2.071   2.117   2.139   2.139   2.212
 78 A    79 A    80 A    81 A    82 A    83 A    84 A    85 A                  
  2.228   2.228   2.259   2.274   2.274   2.287   2.287   2.290
 86 A    87 A    88 A    89 A    90 A    91 A    92 A    93 A                  
  2.354   2.399   2.399   2.552   2.625   2.625   2.626   2.700
 94 A    95 A    96 A    97 A    98 A    99 A   100 A   101 A                  
  2.711   2.711   2.819   2.870   2.870   2.927   2.927   2.961
102 A   103 A   104 A   105 A   106 A   107 A   108 A   109 A                  
  2.978   3.016   3.016   3.019   3.076   3.076   3.250   3.250
110 A   111 A   112 A   113 A   114 A   115 A   116 A   117 A                  
  3.317   3.384   3.384   3.634   3.635   3.635   3.756   3.827
118 A   119 A   120 A   121 A   122 A   123 A   124 A   125 A                  
  3.995   3.995   4.048   4.048   4.049   4.156   4.237   4.268
126 A   127 A   128 A   129 A   130 A   131 A   132 A   133 A                  
  4.268   4.368   4.368   4.456   4.456   4.534   4.534   4.730
134 A   135 A   136 A   137 A   138 A   139 A   140 A   141 A                  
  4.894   4.904   4.904   5.148   5.970   6.200   6.200   6.324
142 A   143 A   144 A   145 A   146 A   147 A   148 A   149 A                  
  6.324   6.484   6.484   6.493   6.498   6.715   6.715   6.715
150 A   151 A   152 A   153 A   154 A   155 A   156 A   157 A                  
  6.922   6.974   6.974   7.006   7.065   7.107   7.107   7.184
158 A   159 A   160 A   161 A   162 A   163 A   164 A   165 A                  
  7.184   7.276   7.276   7.332   7.450   7.523   7.523   7.630
166 A   167 A   168 A   169 A   170 A   171 A   172 A   173 A                  
  7.850   7.971   7.971   8.050   8.050   8.116   8.389   8.389
174 A   175 A   176 A   177 A   178 A   179 A   180 A   181 A                  
  8.512   8.527   8.527   8.722   8.783   8.783   8.884   8.884
182 A   183 A   184 A   185 A   186 A   187 A   188 A   189 A                  
  9.154   9.240   9.397   9.397   9.461   9.520   9.520   9.613
190 A   191 A   192 A   193 A   194 A   195 A   196 A   197 A                  
  9.613   9.614   9.837   9.838   9.838  10.208  10.320  10.320
198 A   199 A   200 A   201 A   202 A   203 A   204 A   205 A                  
 10.407  10.489  10.489  10.881  10.881  10.893  11.022  11.022
206 A   207 A   208 A   209 A   210 A   211 A   212 A   213 A                  
 11.610  11.665  13.119  13.119  14.492  20.243  21.498  21.498
214 A   215 A   216 A   217 A   218 A   219 A   220 A   221 A                  
 27.439  27.439  27.727  28.348  28.348  38.273  67.562  68.508
222 A   223 A   224 A   225 A   226 A   227 A   228 A   229 A                  
 68.508  99.131  99.152  99.152  99.170  99.170  99.176  99.211
230 A   231 A   232 A   233 A   234 A   235 A   236 A   237 A                  
115.867 115.867 115.994 116.323 116.323 124.328 225.899 226.678
238 A   239 A   240 A   241 A   242 A   243 A   244 A   245 A                  
226.678 510.617
246 A   247 A                                                                  

 Occupation and symmetry of molecular orbitals

 Point group: C1 (1 irreducible representation).

                           A     All 
 -------------------------------------
 All molecular orbitals:
  - Alpha                  247   247 
  - Beta                   247   247 
 -------------------------------------
 Alpha orbitals:
  - Frozen occupied        0     0   
  - Active occupied        5     5   
  - Active virtual         242   242 
  - Frozen virtual         0     0   
 -------------------------------------
 Beta orbitals:
  - Frozen occupied        0     0   
  - Active occupied        5     5   
  - Active virtual         242   242 
  - Frozen virtual         0     0   
 -------------------------------------

 Import integrals:   CPU 0.00 s  wall 0.00 s

 Import integrals:   CPU 3947.90 s  wall 655.56 s

 MP2 amplitudes:   CPU 4.27 s  wall 9.60 s

Running a double precision version
           CCSD T amplitudes will be solved using DIIS.

           Start     Size      MaxIter   EConv     TConv     
           3         7         100       1.00e-06  1.00e-04  
 ------------------------------------------------------------------------------
           Energy (a.u.)   Ediff      Tdiff       Comment
 ------------------------------------------------------------------------------
           -39.80568016                           
     1     -39.80986757   4.19e-03   5.04e-01     Step took 03.38.
     2     -39.81648520   6.62e-03   5.70e-02     
     3     -39.81674327   2.58e-04   2.32e-02     
     4     -39.81725962   5.16e-04   8.13e-03     Switched to DIIS steps.
     5     -39.81754916   2.90e-04   5.78e-03     
     6     -39.81756687   1.77e-05   1.86e-03     
     7     -39.81755851   8.36e-06   8.33e-04     
     8     -39.81755971   1.20e-06   4.33e-04     
     9     -39.81756003   3.23e-07   1.97e-04     
    10     -39.81755914   8.89e-07   5.62e-05     
 ------------------------------------------------------------------------------
           -39.81755914                           CCSD T converged.

End of double precision

----------------------------------------
libpt (c) 2016-2018 Ilya Kaliman
Fast Coupled Cluster Triples Corrections
https://github.com/ilyak/libpt
----------------------------------------

 Starting (T) calculation...
 Using double precision libpt code
 (T) calculation completed in 55 sec
 (T) energy is -0.0109215852

 SCF energy                 = -39.52597175
 MP2 energy                 = -39.80568016
 CCSD correlation energy     =  -0.29158739
 CCSD total energy           = -39.81755914
 CCSD(T) correlation energy =  -0.01092159
 CCSD(T) total energy       = -39.82848073

 CCSD  T1^2 = 0.0026  T2^2 = 0.1031  Leading amplitudes:

 Amplitude    Orbitals with energies
 -0.0161       5 (A) B                   ->    9 (A) B                    
              -0.0231                          0.2227                     
 -0.0161       5 (A) A                   ->    9 (A) A                    
              -0.0231                          0.2227                     
 -0.0106       5 (A) A                   ->    17 (A) A                   
              -0.0231                          0.3931                     
 -0.0106       5 (A) B                   ->    17 (A) B                   
              -0.0231                          0.3931                     

 Amplitude    Orbitals with energies
 -0.0526       5 (A) A       5 (A) B     ->    9 (A) A       9 (A) B      
              -0.0231       -0.0231            0.2227        0.2227       
  0.0526       5 (A) A       5 (A) B     ->    9 (A) B       9 (A) A      
              -0.0231       -0.0231            0.2227        0.2227       
  0.0526       5 (A) B       5 (A) A     ->    9 (A) A       9 (A) B      
              -0.0231       -0.0231            0.2227        0.2227       
 -0.0526       5 (A) B       5 (A) A     ->    9 (A) B       9 (A) A      
              -0.0231       -0.0231            0.2227        0.2227       

 CCSD calculation:   CPU 4096.90 s  wall 619.50 s

 Total ccman2 time:   CPU 8113.72 s  wall 1341.05 s

 
 --------------------------------------------------------------
 
                    Orbital Energies (a.u.)
 --------------------------------------------------------------
 
 Alpha MOs
 -- Occupied --
-10.939  -0.625  -0.272  -0.272  -0.023
 -- Virtual --
  0.144   0.149   0.149   0.223   0.243   0.243   0.278   0.341
  0.341   0.389   0.389   0.393   0.434   0.435   0.440   0.440
  0.455   0.458   0.458   0.494   0.494   0.520   0.592   0.592
  0.721   0.739   0.739   0.790   0.794   0.794   0.874   0.886
  0.909   0.909   0.935   0.935   0.941   0.958   0.979   0.979
  1.000   1.000   1.005   1.024   1.024   1.043   1.128   1.134
  1.134   1.205   1.205   1.298   1.298   1.298   1.350   1.390
  1.424   1.424   1.592   1.618   1.663   1.663   1.728   1.728
  1.753   1.829   1.829   1.953   1.953   1.960   1.996   2.033
  2.033   2.054   2.071   2.071   2.117   2.139   2.139   2.212
  2.228   2.228   2.259   2.274   2.274   2.287   2.287   2.290
  2.354   2.399   2.399   2.552   2.625   2.625   2.626   2.700
  2.711   2.711   2.819   2.870   2.870   2.927   2.927   2.961
  2.978   3.016   3.016   3.019   3.076   3.076   3.250   3.250
  3.317   3.384   3.384   3.634   3.635   3.635   3.756   3.827
  3.995   3.995   4.048   4.048   4.049   4.156   4.237   4.268
  4.268   4.368   4.368   4.456   4.456   4.534   4.534   4.730
  4.894   4.904   4.904   5.148   5.970   6.200   6.200   6.324
  6.324   6.484   6.484   6.493   6.498   6.715   6.715   6.715
  6.922   6.974   6.974   7.006   7.065   7.107   7.107   7.184
  7.184   7.276   7.276   7.332   7.450   7.523   7.523   7.630
  7.850   7.971   7.971   8.050   8.050   8.116   8.389   8.389
  8.512   8.527   8.527   8.722   8.783   8.783   8.884   8.884
  9.154   9.240   9.397   9.397   9.461   9.520   9.520   9.613
  9.613   9.614   9.837   9.838   9.838  10.208  10.320  10.320
 10.407  10.489  10.489  10.881  10.881  10.893  11.022  11.022
 11.610  11.665  13.119  13.119  14.492  20.243  21.498  21.498
 27.439  27.439  27.727  28.348  28.348  38.273  67.562  68.508
 68.508  99.131  99.152  99.152  99.170  99.170  99.176  99.211
115.867 115.867 115.994 116.323 116.323 124.328 225.899 226.678
226.678 510.617
 
 Beta MOs
 -- Occupied --
-10.939  -0.625  -0.272  -0.272  -0.023
 -- Virtual --
  0.144   0.149   0.149   0.223   0.243   0.243   0.278   0.341
  0.341   0.389   0.389   0.393   0.434   0.435   0.440   0.440
  0.455   0.458   0.458   0.494   0.494   0.520   0.592   0.592
  0.721   0.739   0.739   0.790   0.794   0.794   0.874   0.886
  0.909   0.909   0.935   0.935   0.941   0.958   0.979   0.979
  1.000   1.000   1.005   1.024   1.024   1.043   1.128   1.134
  1.134   1.205   1.205   1.298   1.298   1.298   1.350   1.390
  1.424   1.424   1.592   1.618   1.663   1.663   1.728   1.728
  1.753   1.829   1.829   1.953   1.953   1.960   1.996   2.033
  2.033   2.054   2.071   2.071   2.117   2.139   2.139   2.212
  2.228   2.228   2.259   2.274   2.274   2.287   2.287   2.290
  2.354   2.399   2.399   2.552   2.625   2.625   2.626   2.700
  2.711   2.711   2.819   2.870   2.870   2.927   2.927   2.961
  2.978   3.016   3.016   3.019   3.076   3.076   3.250   3.250
  3.317   3.384   3.384   3.634   3.635   3.635   3.756   3.827
  3.995   3.995   4.048   4.048   4.049   4.156   4.237   4.268
  4.268   4.368   4.368   4.456   4.456   4.534   4.534   4.730
  4.894   4.904   4.904   5.148   5.970   6.200   6.200   6.324
  6.324   6.484   6.484   6.493   6.498   6.715   6.715   6.715
  6.922   6.974   6.974   7.006   7.065   7.107   7.107   7.184
  7.184   7.276   7.276   7.332   7.450   7.523   7.523   7.630
  7.850   7.971   7.971   8.050   8.050   8.116   8.389   8.389
  8.512   8.527   8.527   8.722   8.783   8.783   8.884   8.884
  9.154   9.240   9.397   9.397   9.461   9.520   9.520   9.613
  9.613   9.614   9.837   9.838   9.838  10.208  10.320  10.320
 10.407  10.489  10.489  10.881  10.881  10.893  11.022  11.022
 11.610  11.665  13.119  13.119  14.492  20.243  21.498  21.498
 27.439  27.439  27.727  28.348  28.348  38.273  67.562  68.508
 68.508  99.131  99.152  99.152  99.170  99.170  99.176  99.211
115.867 115.867 115.994 116.323 116.323 124.328 225.899 226.678
226.678 510.617
 --------------------------------------------------------------
 
          Ground-State Mulliken Net Atomic Charges

     Atom                 Charge (a.u.)    Spin (a.u.)
  --------------------------------------------------------
      1 C                    -1.704530       0.000000
      2 H                     0.234844       0.000000
      3 H                     0.234843      -0.000000
      4 H                     0.234843      -0.000000
  --------------------------------------------------------
  Sum of atomic charges =    -1.000000
  Sum of spin   charges =     0.000000

 -----------------------------------------------------------------
                    Cartesian Multipole Moments
 -----------------------------------------------------------------
    Charge (ESU x 10^10)
                -4.8032
    Dipole Moment (Debye)
         X       0.0000      Y      -0.0000      Z      -1.6849
       Tot       1.6849
    Quadrupole Moments (Debye-Ang)
        XX     -13.0226     XY       0.0000     YY     -13.0226
        XZ      -0.0000     YZ       0.0000     ZZ     -20.2367
    Octopole Moments (Debye-Ang^2)
       XXX       0.0000    XXY      -0.0632    XYY       0.0000
       YYY       0.0632    XXZ      -1.3805    XYZ       0.0000
       YYZ      -1.3805    XZZ       0.0000    YZZ      -0.0000
       ZZZ      -4.9575
    Hexadecapole Moments (Debye-Ang^3)
      XXXX     -36.6212   XXXY      -0.0000   XXYY     -12.2071
      XYYY      -0.0000   YYYY     -36.6212   XXXZ      -0.0000
      XXYZ       0.0067   XYYZ      -0.0000   YYYZ      -0.0067
      XXZZ     -20.9370   XYZZ      -0.0000   YYZZ     -20.9370
      XZZZ      -0.0000   YZZZ       0.0000   ZZZZ     -87.2932
 -----------------------------------------------------------------
Archival summary:
1\1\n0091.mhg0\SP\ProcedureUnspecified\BasisUnspecified\13(1-,1)\yhljason\MonSep2101:59:002020MonSep2101:59:002020\0\\#,ProcedureUnspecified,BasisUnspecified,\\-1,1\C\H,1,1.09901\H,1,1.09901,2,109.73\H,1,1.09901,2,109.73,3,-120.64,0\\HF=-39.5259718\\@

 Total job time:  1529.40s(wall), 9203.23s(cpu) 
 Mon Sep 21 01:59:00 2020

        *************************************************************
        *                                                           *
        *  Thank you very much for using Q-Chem.  Have a nice day.  *
        *                                                           *
        *************************************************************


 
User input: 3 of 3 
 
Q-Chem Developer Version!
                  Welcome to Q-Chem
     A Quantum Leap Into The Future Of Chemistry


 Q-Chem 5.1, Q-Chem, Inc., Pleasanton, CA (2018)

 Yihan Shao,  Zhengting Gan,  E. Epifanovsky,  A. T. B. Gilbert,  M. Wormit,  
 J. Kussmann,  A. W. Lange,  A. Behn,  Jia Deng,  Xintian Feng,  D. Ghosh,  
 M. Goldey,  P. R. Horn,  L. D. Jacobson,  I. Kaliman,  T. Kus,  A. Landau,  
 Jie Liu,  E. I. Proynov,  R. M. Richard,  R. P. Steele,  E. J. Sundstrom,  
 H. L. Woodcock III,  P. M. Zimmerman,  D. Zuev,  B. Albrecht,  E. Alguire,  
 S. A. Baeppler,  D. Barton,  Z. Benda,  Y. A. Bernard,  E. J. Berquist,  
 K. B. Bravaya,  H. Burton,  D. Casanova,  Chun-Min Chang,  Yunqing Chen,  
 A. Chien,  K. D. Closser,  M. P. Coons,  S. Coriani,  S. Dasgupta,  
 A. L. Dempwolff,  M. Diedenhofen,  Hainam Do,  R. G. Edgar,  Po-Tung Fang,  
 S. Faraji,  S. Fatehi,  Qingguo Feng,  K. D. Fenk,  J. Fosso-Tande,  
 Qinghui Ge,  A. Ghysels,  G. Gidofalvi,  J. Gomes,  J. Gonthier,  A. Gunina,  
 D. Hait,  M. W. D. Hanson-Heine,  P. H. P. Harbach,  A. W. Hauser,  
 J. E. Herr,  E. G. Hohenstein,  Z. C. Holden,  Kerwin Hui,  B. C. Huynh,  
 T.-C. Jagau,  Hyunjun Ji,  B. Kaduk,  K. Khistyaev,  Jaehoon Kim,  
 P. Klunzinger,  K. Koh,  D. Kosenkov,  L. Koulias,  T. Kowalczyk,  
 C. M. Krauter,  A. Kunitsa,  Ka Un Lao,  A. Laurent,  K. V. Lawler,  
 Joonho Lee,  D. Lefrancois,  S. Lehtola,  D. S. Levine,  Yi-Pei Li,  
 You-Sheng Lin,  Fenglai Liu,  E. Livshits,  A. Luenser,  P. Manohar,  
 E. Mansoor,  S. F. Manzer,  Shan-Ping Mao,  Yuezhi Mao,  N. Mardirossian,  
 A. V. Marenich,  T. Markovich,  L. A. Martinez-Martinez,  S. A. Maurer,  
 N. J. Mayhall,  S. C. McKenzie,  J.-M. Mewes,  A. F. Morrison,  
 J. W. Mullinax,  K. Nanda,  T. S. Nguyen-Beck,  R. Olivares-Amaya,  
 J. A. Parkhill,  T. M. Perrine,  F. Plasser,  P. Pokhilko,  S. Prager,  
 A. Prociuk,  E. Ramos,  D. R. Rehn,  F. Rob,  M. Schneider,  N. Sergueev,  
 S. M. Sharada,  S. Sharma,  D. W. Small,  T. Stauch,  T. Stein,  
 Yu-Chuan Su,  A. J. W. Thom,  A. Tkatchenko,  T. Tsuchimochi,  N. M. Tubman,  
 L. Vogt,  M. L. Vidal,  O. Vydrov,  M. A. Watson,  J. Wenzel,  
 M. de Wergifosse,  T. A. Wesolowski,  A. White,  J. Witte,  A. Yamada,  
 Jun Yang,  K. Yao,  S. Yeganeh,  S. R. Yost,  Zhi-Qiang You,  A. Zech,  
 Igor Ying Zhang,  Xing Zhang,  Yan Zhao,  Ying Zhu,  B. R. Brooks,  
 G. K. L. Chan,  C. J. Cramer,  M. S. Gordon,  W. J. Hehre,  A. Klamt,  
 M. W. Schmidt,  C. D. Sherrill,  D. G. Truhlar,  A. Aspuru-Guzik,  R. Baer,  
 A. T. Bell,  N. A. Besley,  Jeng-Da Chai,  A. E. DePrince, III,  
 R. A. DiStasio Jr.,  A. Dreuw,  B. D. Dunietz,  T. R. Furlani,  
 Chao-Ping Hsu,  Yousung Jung,  Jing Kong,  D. S. Lambrecht,  WanZhen Liang,  
 C. Ochsenfeld,  V. A. Rassolov,  L. V. Slipchenko,  J. E. Subotnik,  
 T. Van Voorhis,  J. M. Herbert,  A. I. Krylov,  P. M. W. Gill,  M. Head-Gordon

 Contributors to earlier versions of Q-Chem not listed above: 
 R. D. Adamson,  B. Austin,  J. Baker,  G. J. O. Beran,  K. Brandhorst,  
 S. T. Brown,  E. F. C. Byrd,  A. K. Chakraborty,  C.-L. Cheng,  
 Siu Hung Chien,  D. M. Chipman,  D. L. Crittenden,  H. Dachsel,  
 R. J. Doerksen,  A. D. Dutoi,  L. Fusti-Molnar,  W. A. Goddard III,  
 A. Golubeva-Zadorozhnaya,  S. R. Gwaltney,  G. Hawkins,  A. Heyden,  
 S. Hirata,  G. Kedziora,  F. J. Keil,  C. Kelley,  Jihan Kim,  R. A. King,  
 R. Z. Khaliullin,  P. P. Korambath,  W. Kurlancheek,  A. M. Lee,  M. S. Lee,  
 S. V. Levchenko,  Ching Yeh Lin,  D. Liotard,  R. C. Lochan,  I. Lotan,  
 P. E. Maslen,  N. Nair,  D. P. O'Neill,  D. Neuhauser,  E. Neuscamman,  
 C. M. Oana,  R. Olson,  B. Peters,  R. Peverati,  P. A. Pieniazek,  
 Y. M. Rhee,  J. Ritchie,  M. A. Rohrdanz,  E. Rosta,  N. J. Russ,  
 H. F. Schaefer III,  N. E. Schultz,  N. Shenvi,  A. C. Simmonett,  A. Sodt,  
 D. Stuck,  K. S. Thanthiriwatte,  V. Vanovschi,  Tao Wang,  A. Warshel,  
 C. F. Williams,  Q. Wu,  X. Xu,  W. Zhang

 Please cite Q-Chem as follows:
 Y. Shao et al., Mol. Phys. 113, 184-215 (2015)
 DOI: 10.1080/00268976.2014.952696

 Q-Chem 5.1.1 for Intel X86 EM64T Linux

 Parts of Q-Chem use Armadillo 8.300.2 (Tropical Shenanigans).
 http://arma.sourceforge.net/

 Q-Chem begins on Mon Sep 21 01:59:00 2020  

Host: n0091.mhg0
0

     Scratch files written to /local/scratch/users/yhljason/CH3-_ccsdT_aug-cc-pcVQZ.inp20200921010457//
The previous job contains 0 fragments, simply inherited here
Input Ideriv = 0
Curr. Ideriv = -1
Max.  Ideriv = 0

Checking the input file for inconsistencies... 	...done.

--------------------------------------------------------------
User input:
--------------------------------------------------------------
$molecule
read
$end

$rem

jobtype sp
method CCSD(T)
xc_grid 000099000590
basis aug-cc-pcVQZ
max_scf_cycles 200
thresh 14
scf_convergence 8
mem_total 128000
cc_memory 96000
cc_backend xm
mem_static 1500
symmetry false
sym_ignore true
scf_guess read
unrestricted true
scf_algorithm gdm
n_frozen_core 0
$end

$multipole_field
Z -0.0001
$end

--------------------------------------------------------------
 ----------------------------------------------------------------
             Standard Nuclear Orientation (Angstroms)
    I     Atom           X                Y                Z
 ----------------------------------------------------------------
    1      C       0.0000000000     0.0000002206     0.0716704292
    2      H       0.0000000000     1.0378118041    -0.2899567231
    3      H       0.8987709644    -0.5189060123    -0.2899568531
    4      H      -0.8987709644    -0.5189060124    -0.2899568531
 ----------------------------------------------------------------
 Nuclear Repulsion Energy =     9.5502165999 hartrees
 There are        5 alpha and        5 beta electrons
 Requested basis set is aug-cc-pCVQZ
 There are 71 shells and 247 basis functions
 Total memory of 128000MB is distributed as follows: 
   QALLOC including MEM_STATIC uses 32000MB
   MEM_STATIC is set to 1500MB
   CCMAN JOB total memory use is  96000MB
 Warning: actual memory use might exceed 128000MB

 Total QAlloc Memory Limit  32000 MB
 Mega-Array Size      1467 MB
 MEM_STATIC part      1500 MB

                       Distance Matrix (Angstroms)
             C (  1)   H (  2)   H (  3)
   H (  2)  1.099012
   H (  3)  1.099012  1.797543
   H (  4)  1.099012  1.797543  1.797542
 
 Applying Cartesian multipole field
    Component          Value
    ---------          -----
     (0,0,1)       -1.00000E-04
 Nucleus-field energy     =     0.0000831192 hartrees
 A cutoff of  1.0D-14 yielded   2556 shell pairs
 There are     31120 function pairs (     47305 Cartesian)
 
 -------------------------------------------------------
 OpenMP Integral Computing Module                       
 Release: version 1.0, May 2013, Q-Chem Inc. Pittsburgh 
 -------------------------------------------------------
 Integral Job Info:
 Integral job number is                      11
 Integral operator is                         1
 short-range coefficients                     0
 long-range coefficients              100000000
 Omega coefficients                           0
 if combine SR and LR in K                    0
 Integral screening is                        0
 Integral computing path is                   2
 max size of driver memory is           3200000
 size of driver memory is               1704330
 size of scratch memory is             18511652
 max col of scratch BK array              50625
 max len of scratch array in speh3         2114
 max len of scratch index in speh4           50
 max int batch size is                      520
 min int batch size is                       52
 fixed nKL is                                52
 max L of basis functions is                  4
 order of int derivative is                   0
 number of shells is                         71
 number of basis is                         304
 number of cartesian basis is               304
 number of contracted shell pairs          2556
 number of primitive shell pairs           4521
 maxK2 (contraction) of shell pair           81
 max number of K2 of shell pair               1
 max number of CS2 of shell pair            364
 max number of PS2 of shell pair            369
 mem total for path MDJ                  671149
 -------------------------------------------------------
 Smallest overlap matrix eigenvalue = 2.97E-05
 Guess MOs from SCF MO coefficient file

 -----------------------------------------------------------------------
  General SCF calculation program by
  Eric Jon Sundstrom, Paul Horn, Yuezhi Mao, Dmitri Zuev, Alec White,
  David Stuck, Shaama M.S., Shane Yost, Joonho Lee, David Small,
  Daniel Levine, Susi Lehtola, Hugh Burton, Evgeny Epifanovsky
 -----------------------------------------------------------------------
 Hartree-Fock
 using 16 threads for integral computing
 -------------------------------------------------------
 OpenMP Integral computing Module                
 Release: version 2.0, May 2017, Q-Chem Inc. Pleasanton 
 -------------------------------------------------------
 A unrestricted SCF calculation will be
 performed using GDM
 SCF converges when RMS gradient is below 1.0e-08
 ---------------------------------------
  Cycle       Energy        RMS Gradient
 ---------------------------------------
    1     -39.5258391785      6.47e-04   Normal BFGS step
    2     -39.5258407743      4.20e-04   Normal BFGS step
    3     -39.5258414644      1.57e-04   Normal BFGS step
    4     -39.5258415948      1.11e-04   Normal BFGS step
    5     -39.5258416298      3.04e-05   Normal BFGS step
    6     -39.5258416336      4.42e-06   Normal BFGS step
    7     -39.5258416339      2.33e-06   Normal BFGS step
    8     -39.5258416340      8.64e-07   Normal BFGS step
    9     -39.5258416340      2.60e-07   Normal BFGS step
   10     -39.5258416340      8.05e-08   Normal BFGS step
   11     -39.5258416340      2.41e-08   Normal BFGS step
   12     -39.5258416340      7.24e-09  Convergence criterion met
 ---------------------------------------
 SCF time:   CPU 1050.37s  wall 71.00s 
<S^2> =          0.000000000
 SCF   energy in the final basis set =      -39.5258416340
 Total energy in the final basis set =      -39.5258416340


 ------------------------------------------------------------------------------

   CCMAN2: suite of methods based on coupled cluster
           and equation of motion theories.

   Components:
   * libvmm-1.3-trunk
     by Evgeny Epifanovsky, Ilya Kaliman.
   * libtensor-2.5-trunk
     by Evgeny Epifanovsky, Michael Wormit, Dmitry Zuev, Sam Manzer, 
        Ilya Kaliman.
   * libcc-2.5-trunk
     by Evgeny Epifanovsky, Arik Landau, Tomasz Kus, Kirill Khistyaev, 
        Dmitry Zuev, Prashant Manohar, Xintian Feng, Anna Krylov, 
        Matthew Goldey, Alec White, Thomas Jagau, Kaushik Nanda, 
        Anastasia Gunina, Alexander Kunitsa, Joonho Lee.

   CCMAN original authors:
   Anna I. Krylov, C. David Sherrill, Steven R. Gwaltney,
   Edward F. C. Byrd (2000)
   Sergey V. Levchenko, Lyudmila V. Slipchenko, Tao Wang,
   Ana-Maria C. Cristian (2003)
   Piotr A. Pieniazek, C. Melania Oana, Evgeny Epifanovsky (2007)
   Prashant Manohar (2009)

 ------------------------------------------------------------------------------


 Calculation will run on 16 cores using libxm for tensor contractions

 ------------------------------------------------------------------------------
Libxm Tensor Library
Copyright (c) 2014-2018 Ilya Kaliman
https://github.com/ilyak/libxm
Reference: https://dx.doi.org/10.1002/jcc.24713
 ------------------------------------------------------------------------------

 
 Alpha MOs, Unrestricted
 -- Occupied --                  
-10.939  -0.625  -0.272  -0.272  -0.023
  1 A     2 A     3 A     4 A     5 A                                          
 -- Virtual --                   
  0.144   0.149   0.149   0.223   0.243   0.243   0.277   0.341
  6 A     7 A     8 A     9 A    10 A    11 A    12 A    13 A                  
  0.341   0.389   0.389   0.393   0.434   0.435   0.440   0.440
 14 A    15 A    16 A    17 A    18 A    19 A    20 A    21 A                  
  0.455   0.458   0.458   0.494   0.494   0.520   0.592   0.592
 22 A    23 A    24 A    25 A    26 A    27 A    28 A    29 A                  
  0.721   0.739   0.739   0.790   0.794   0.794   0.874   0.886
 30 A    31 A    32 A    33 A    34 A    35 A    36 A    37 A                  
  0.909   0.909   0.935   0.935   0.941   0.958   0.979   0.979
 38 A    39 A    40 A    41 A    42 A    43 A    44 A    45 A                  
  1.000   1.000   1.005   1.024   1.024   1.043   1.128   1.135
 46 A    47 A    48 A    49 A    50 A    51 A    52 A    53 A                  
  1.135   1.205   1.205   1.298   1.298   1.298   1.350   1.390
 54 A    55 A    56 A    57 A    58 A    59 A    60 A    61 A                  
  1.424   1.424   1.592   1.618   1.663   1.663   1.728   1.728
 62 A    63 A    64 A    65 A    66 A    67 A    68 A    69 A                  
  1.753   1.829   1.829   1.953   1.953   1.960   1.996   2.033
 70 A    71 A    72 A    73 A    74 A    75 A    76 A    77 A                  
  2.033   2.054   2.071   2.071   2.117   2.139   2.139   2.212
 78 A    79 A    80 A    81 A    82 A    83 A    84 A    85 A                  
  2.228   2.228   2.259   2.274   2.274   2.287   2.287   2.290
 86 A    87 A    88 A    89 A    90 A    91 A    92 A    93 A                  
  2.354   2.399   2.399   2.552   2.625   2.625   2.626   2.700
 94 A    95 A    96 A    97 A    98 A    99 A   100 A   101 A                  
  2.711   2.711   2.819   2.870   2.870   2.927   2.927   2.962
102 A   103 A   104 A   105 A   106 A   107 A   108 A   109 A                  
  2.978   3.016   3.016   3.019   3.076   3.076   3.250   3.250
110 A   111 A   112 A   113 A   114 A   115 A   116 A   117 A                  
  3.317   3.384   3.384   3.635   3.635   3.635   3.756   3.827
118 A   119 A   120 A   121 A   122 A   123 A   124 A   125 A                  
  3.995   3.995   4.048   4.048   4.049   4.156   4.237   4.268
126 A   127 A   128 A   129 A   130 A   131 A   132 A   133 A                  
  4.268   4.368   4.368   4.456   4.456   4.534   4.534   4.730
134 A   135 A   136 A   137 A   138 A   139 A   140 A   141 A                  
  4.894   4.904   4.904   5.148   5.970   6.200   6.200   6.324
142 A   143 A   144 A   145 A   146 A   147 A   148 A   149 A                  
  6.324   6.484   6.484   6.493   6.498   6.715   6.715   6.715
150 A   151 A   152 A   153 A   154 A   155 A   156 A   157 A                  
  6.922   6.974   6.974   7.006   7.065   7.107   7.107   7.184
158 A   159 A   160 A   161 A   162 A   163 A   164 A   165 A                  
  7.184   7.276   7.276   7.332   7.450   7.523   7.523   7.630
166 A   167 A   168 A   169 A   170 A   171 A   172 A   173 A                  
  7.850   7.971   7.971   8.050   8.050   8.116   8.389   8.389
174 A   175 A   176 A   177 A   178 A   179 A   180 A   181 A                  
  8.512   8.527   8.527   8.722   8.783   8.783   8.884   8.884
182 A   183 A   184 A   185 A   186 A   187 A   188 A   189 A                  
  9.154   9.240   9.397   9.397   9.461   9.520   9.520   9.613
190 A   191 A   192 A   193 A   194 A   195 A   196 A   197 A                  
  9.613   9.614   9.837   9.838   9.838  10.208  10.320  10.320
198 A   199 A   200 A   201 A   202 A   203 A   204 A   205 A                  
 10.407  10.489  10.489  10.881  10.881  10.893  11.022  11.022
206 A   207 A   208 A   209 A   210 A   211 A   212 A   213 A                  
 11.610  11.665  13.119  13.119  14.492  20.243  21.498  21.498
214 A   215 A   216 A   217 A   218 A   219 A   220 A   221 A                  
 27.439  27.439  27.727  28.348  28.348  38.273  67.562  68.508
222 A   223 A   224 A   225 A   226 A   227 A   228 A   229 A                  
 68.508  99.131  99.152  99.152  99.170  99.170  99.177  99.211
230 A   231 A   232 A   233 A   234 A   235 A   236 A   237 A                  
115.867 115.867 115.994 116.323 116.323 124.328 225.900 226.678
238 A   239 A   240 A   241 A   242 A   243 A   244 A   245 A                  
226.678 510.617
246 A   247 A                                                                  
 
 Beta MOs, Unrestricted
 -- Occupied --                  
-10.939  -0.625  -0.272  -0.272  -0.023
  1 A     2 A     3 A     4 A     5 A                                          
 -- Virtual --                   
  0.144   0.149   0.149   0.223   0.243   0.243   0.277   0.341
  6 A     7 A     8 A     9 A    10 A    11 A    12 A    13 A                  
  0.341   0.389   0.389   0.393   0.434   0.435   0.440   0.440
 14 A    15 A    16 A    17 A    18 A    19 A    20 A    21 A                  
  0.455   0.458   0.458   0.494   0.494   0.520   0.592   0.592
 22 A    23 A    24 A    25 A    26 A    27 A    28 A    29 A                  
  0.721   0.739   0.739   0.790   0.794   0.794   0.874   0.886
 30 A    31 A    32 A    33 A    34 A    35 A    36 A    37 A                  
  0.909   0.909   0.935   0.935   0.941   0.958   0.979   0.979
 38 A    39 A    40 A    41 A    42 A    43 A    44 A    45 A                  
  1.000   1.000   1.005   1.024   1.024   1.043   1.128   1.135
 46 A    47 A    48 A    49 A    50 A    51 A    52 A    53 A                  
  1.135   1.205   1.205   1.298   1.298   1.298   1.350   1.390
 54 A    55 A    56 A    57 A    58 A    59 A    60 A    61 A                  
  1.424   1.424   1.592   1.618   1.663   1.663   1.728   1.728
 62 A    63 A    64 A    65 A    66 A    67 A    68 A    69 A                  
  1.753   1.829   1.829   1.953   1.953   1.960   1.996   2.033
 70 A    71 A    72 A    73 A    74 A    75 A    76 A    77 A                  
  2.033   2.054   2.071   2.071   2.117   2.139   2.139   2.212
 78 A    79 A    80 A    81 A    82 A    83 A    84 A    85 A                  
  2.228   2.228   2.259   2.274   2.274   2.287   2.287   2.290
 86 A    87 A    88 A    89 A    90 A    91 A    92 A    93 A                  
  2.354   2.399   2.399   2.552   2.625   2.625   2.626   2.700
 94 A    95 A    96 A    97 A    98 A    99 A   100 A   101 A                  
  2.711   2.711   2.819   2.870   2.870   2.927   2.927   2.962
102 A   103 A   104 A   105 A   106 A   107 A   108 A   109 A                  
  2.978   3.016   3.016   3.019   3.076   3.076   3.250   3.250
110 A   111 A   112 A   113 A   114 A   115 A   116 A   117 A                  
  3.317   3.384   3.384   3.635   3.635   3.635   3.756   3.827
118 A   119 A   120 A   121 A   122 A   123 A   124 A   125 A                  
  3.995   3.995   4.048   4.048   4.049   4.156   4.237   4.268
126 A   127 A   128 A   129 A   130 A   131 A   132 A   133 A                  
  4.268   4.368   4.368   4.456   4.456   4.534   4.534   4.730
134 A   135 A   136 A   137 A   138 A   139 A   140 A   141 A                  
  4.894   4.904   4.904   5.148   5.970   6.200   6.200   6.324
142 A   143 A   144 A   145 A   146 A   147 A   148 A   149 A                  
  6.324   6.484   6.484   6.493   6.498   6.715   6.715   6.715
150 A   151 A   152 A   153 A   154 A   155 A   156 A   157 A                  
  6.922   6.974   6.974   7.006   7.065   7.107   7.107   7.184
158 A   159 A   160 A   161 A   162 A   163 A   164 A   165 A                  
  7.184   7.276   7.276   7.332   7.450   7.523   7.523   7.630
166 A   167 A   168 A   169 A   170 A   171 A   172 A   173 A                  
  7.850   7.971   7.971   8.050   8.050   8.116   8.389   8.389
174 A   175 A   176 A   177 A   178 A   179 A   180 A   181 A                  
  8.512   8.527   8.527   8.722   8.783   8.783   8.884   8.884
182 A   183 A   184 A   185 A   186 A   187 A   188 A   189 A                  
  9.154   9.240   9.397   9.397   9.461   9.520   9.520   9.613
190 A   191 A   192 A   193 A   194 A   195 A   196 A   197 A                  
  9.613   9.614   9.837   9.838   9.838  10.208  10.320  10.320
198 A   199 A   200 A   201 A   202 A   203 A   204 A   205 A                  
 10.407  10.489  10.489  10.881  10.881  10.893  11.022  11.022
206 A   207 A   208 A   209 A   210 A   211 A   212 A   213 A                  
 11.610  11.665  13.119  13.119  14.492  20.243  21.498  21.498
214 A   215 A   216 A   217 A   218 A   219 A   220 A   221 A                  
 27.439  27.439  27.727  28.348  28.348  38.273  67.562  68.508
222 A   223 A   224 A   225 A   226 A   227 A   228 A   229 A                  
 68.508  99.131  99.152  99.152  99.170  99.170  99.177  99.211
230 A   231 A   232 A   233 A   234 A   235 A   236 A   237 A                  
115.867 115.867 115.994 116.323 116.323 124.328 225.900 226.678
238 A   239 A   240 A   241 A   242 A   243 A   244 A   245 A                  
226.678 510.617
246 A   247 A                                                                  

 Occupation and symmetry of molecular orbitals

 Point group: C1 (1 irreducible representation).

                           A     All 
 -------------------------------------
 All molecular orbitals:
  - Alpha                  247   247 
  - Beta                   247   247 
 -------------------------------------
 Alpha orbitals:
  - Frozen occupied        0     0   
  - Active occupied        5     5   
  - Active virtual         242   242 
  - Frozen virtual         0     0   
 -------------------------------------
 Beta orbitals:
  - Frozen occupied        0     0   
  - Active occupied        5     5   
  - Active virtual         242   242 
  - Frozen virtual         0     0   
 -------------------------------------

 Import integrals:   CPU 0.00 s  wall 0.00 s

 Import integrals:   CPU 3799.39 s  wall 643.79 s

 MP2 amplitudes:   CPU 4.20 s  wall 7.24 s

Running a double precision version
           CCSD T amplitudes will be solved using DIIS.

           Start     Size      MaxIter   EConv     TConv     
           3         7         100       1.00e-06  1.00e-04  
 ------------------------------------------------------------------------------
           Energy (a.u.)   Ediff      Tdiff       Comment
 ------------------------------------------------------------------------------
           -39.80557594                           
     1     -39.80974751   4.17e-03   5.04e-01     Step took 02.37.
     2     -39.81637026   6.62e-03   5.69e-02     
     3     -39.81662383   2.54e-04   2.31e-02     
     4     -39.81713698   5.13e-04   8.34e-03     Switched to DIIS steps.
     5     -39.81742971   2.93e-04   5.80e-03     
     6     -39.81744887   1.92e-05   1.89e-03     
     7     -39.81744035   8.52e-06   8.32e-04     
     8     -39.81744145   1.10e-06   4.30e-04     
     9     -39.81744184   3.87e-07   1.94e-04     
    10     -39.81744083   1.01e-06   6.18e-05     
    11     -39.81744166   8.28e-07   3.71e-05     
 ------------------------------------------------------------------------------
           -39.81744166                           CCSD T converged.

End of double precision

----------------------------------------
libpt (c) 2016-2018 Ilya Kaliman
Fast Coupled Cluster Triples Corrections
https://github.com/ilyak/libpt
----------------------------------------

 Starting (T) calculation...
 Using double precision libpt code
 (T) calculation completed in 59 sec
 (T) energy is -0.0109295596

 SCF energy                 = -39.52584163
 MP2 energy                 = -39.80557594
 CCSD correlation energy     =  -0.29160002
 CCSD total energy           = -39.81744166
 CCSD(T) correlation energy =  -0.01092956
 CCSD(T) total energy       = -39.82837122

 CCSD  T1^2 = 0.0027  T2^2 = 0.1031  Leading amplitudes:

 Amplitude    Orbitals with energies
 -0.0162       5 (A) B                   ->    9 (A) B                    
              -0.0231                          0.2229                     
 -0.0162       5 (A) A                   ->    9 (A) A                    
              -0.0231                          0.2229                     
 -0.0107       5 (A) B                   ->    17 (A) B                   
              -0.0231                          0.3931                     
 -0.0107       5 (A) A                   ->    17 (A) A                   
              -0.0231                          0.3931                     

 Amplitude    Orbitals with energies
 -0.0525       5 (A) A       5 (A) B     ->    9 (A) A       9 (A) B      
              -0.0231       -0.0231            0.2229        0.2229       
  0.0525       5 (A) A       5 (A) B     ->    9 (A) B       9 (A) A      
              -0.0231       -0.0231            0.2229        0.2229       
  0.0525       5 (A) B       5 (A) A     ->    9 (A) A       9 (A) B      
              -0.0231       -0.0231            0.2229        0.2229       
 -0.0525       5 (A) B       5 (A) A     ->    9 (A) B       9 (A) A      
              -0.0231       -0.0231            0.2229        0.2229       

 CCSD calculation:   CPU 4166.28 s  wall 639.20 s

 Total ccman2 time:   CPU 8039.50 s  wall 1402.75 s

 
 --------------------------------------------------------------
 
                    Orbital Energies (a.u.)
 --------------------------------------------------------------
 
 Alpha MOs
 -- Occupied --
-10.939  -0.625  -0.272  -0.272  -0.023
 -- Virtual --
  0.144   0.149   0.149   0.223   0.243   0.243   0.277   0.341
  0.341   0.389   0.389   0.393   0.434   0.435   0.440   0.440
  0.455   0.458   0.458   0.494   0.494   0.520   0.592   0.592
  0.721   0.739   0.739   0.790   0.794   0.794   0.874   0.886
  0.909   0.909   0.935   0.935   0.941   0.958   0.979   0.979
  1.000   1.000   1.005   1.024   1.024   1.043   1.128   1.135
  1.135   1.205   1.205   1.298   1.298   1.298   1.350   1.390
  1.424   1.424   1.592   1.618   1.663   1.663   1.728   1.728
  1.753   1.829   1.829   1.953   1.953   1.960   1.996   2.033
  2.033   2.054   2.071   2.071   2.117   2.139   2.139   2.212
  2.228   2.228   2.259   2.274   2.274   2.287   2.287   2.290
  2.354   2.399   2.399   2.552   2.625   2.625   2.626   2.700
  2.711   2.711   2.819   2.870   2.870   2.927   2.927   2.962
  2.978   3.016   3.016   3.019   3.076   3.076   3.250   3.250
  3.317   3.384   3.384   3.635   3.635   3.635   3.756   3.827
  3.995   3.995   4.048   4.048   4.049   4.156   4.237   4.268
  4.268   4.368   4.368   4.456   4.456   4.534   4.534   4.730
  4.894   4.904   4.904   5.148   5.970   6.200   6.200   6.324
  6.324   6.484   6.484   6.493   6.498   6.715   6.715   6.715
  6.922   6.974   6.974   7.006   7.065   7.107   7.107   7.184
  7.184   7.276   7.276   7.332   7.450   7.523   7.523   7.630
  7.850   7.971   7.971   8.050   8.050   8.116   8.389   8.389
  8.512   8.527   8.527   8.722   8.783   8.783   8.884   8.884
  9.154   9.240   9.397   9.397   9.461   9.520   9.520   9.613
  9.613   9.614   9.837   9.838   9.838  10.208  10.320  10.320
 10.407  10.489  10.489  10.881  10.881  10.893  11.022  11.022
 11.610  11.665  13.119  13.119  14.492  20.243  21.498  21.498
 27.439  27.439  27.727  28.348  28.348  38.273  67.562  68.508
 68.508  99.131  99.152  99.152  99.170  99.170  99.177  99.211
115.867 115.867 115.994 116.323 116.323 124.328 225.900 226.678
226.678 510.617
 
 Beta MOs
 -- Occupied --
-10.939  -0.625  -0.272  -0.272  -0.023
 -- Virtual --
  0.144   0.149   0.149   0.223   0.243   0.243   0.277   0.341
  0.341   0.389   0.389   0.393   0.434   0.435   0.440   0.440
  0.455   0.458   0.458   0.494   0.494   0.520   0.592   0.592
  0.721   0.739   0.739   0.790   0.794   0.794   0.874   0.886
  0.909   0.909   0.935   0.935   0.941   0.958   0.979   0.979
  1.000   1.000   1.005   1.024   1.024   1.043   1.128   1.135
  1.135   1.205   1.205   1.298   1.298   1.298   1.350   1.390
  1.424   1.424   1.592   1.618   1.663   1.663   1.728   1.728
  1.753   1.829   1.829   1.953   1.953   1.960   1.996   2.033
  2.033   2.054   2.071   2.071   2.117   2.139   2.139   2.212
  2.228   2.228   2.259   2.274   2.274   2.287   2.287   2.290
  2.354   2.399   2.399   2.552   2.625   2.625   2.626   2.700
  2.711   2.711   2.819   2.870   2.870   2.927   2.927   2.962
  2.978   3.016   3.016   3.019   3.076   3.076   3.250   3.250
  3.317   3.384   3.384   3.635   3.635   3.635   3.756   3.827
  3.995   3.995   4.048   4.048   4.049   4.156   4.237   4.268
  4.268   4.368   4.368   4.456   4.456   4.534   4.534   4.730
  4.894   4.904   4.904   5.148   5.970   6.200   6.200   6.324
  6.324   6.484   6.484   6.493   6.498   6.715   6.715   6.715
  6.922   6.974   6.974   7.006   7.065   7.107   7.107   7.184
  7.184   7.276   7.276   7.332   7.450   7.523   7.523   7.630
  7.850   7.971   7.971   8.050   8.050   8.116   8.389   8.389
  8.512   8.527   8.527   8.722   8.783   8.783   8.884   8.884
  9.154   9.240   9.397   9.397   9.461   9.520   9.520   9.613
  9.613   9.614   9.837   9.838   9.838  10.208  10.320  10.320
 10.407  10.489  10.489  10.881  10.881  10.893  11.022  11.022
 11.610  11.665  13.119  13.119  14.492  20.243  21.498  21.498
 27.439  27.439  27.727  28.348  28.348  38.273  67.562  68.508
 68.508  99.131  99.152  99.152  99.170  99.170  99.177  99.211
115.867 115.867 115.994 116.323 116.323 124.328 225.900 226.678
226.678 510.617
 --------------------------------------------------------------
 
          Ground-State Mulliken Net Atomic Charges

     Atom                 Charge (a.u.)    Spin (a.u.)
  --------------------------------------------------------
      1 C                    -1.704191      -0.000000
      2 H                     0.234731      -0.000000
      3 H                     0.234730       0.000000
      4 H                     0.234730      -0.000000
  --------------------------------------------------------
  Sum of atomic charges =    -1.000000
  Sum of spin   charges =     0.000000

 -----------------------------------------------------------------
                    Cartesian Multipole Moments
 -----------------------------------------------------------------
    Charge (ESU x 10^10)
                -4.8032
    Dipole Moment (Debye)
         X       0.0000      Y      -0.0000      Z      -1.6224
       Tot       1.6224
    Quadrupole Moments (Debye-Ang)
        XX     -13.0191     XY       0.0000     YY     -13.0191
        XZ      -0.0000     YZ       0.0000     ZZ     -20.2280
    Octopole Moments (Debye-Ang^2)
       XXX       0.0000    XXY      -0.0595    XYY       0.0000
       YYY       0.0595    XXZ      -1.2297    XYZ       0.0000
       YYZ      -1.2297    XZZ       0.0000    YZZ      -0.0000
       ZZZ      -4.4830
    Hexadecapole Moments (Debye-Ang^3)
      XXXX     -36.5700   XXXY      -0.0000   XXYY     -12.1900
      XYYY      -0.0000   YYYY     -36.5700   XXXZ      -0.0000
      XXYZ       0.0047   XYYZ      -0.0000   YYYZ      -0.0047
      XXZZ     -20.9161   XYZZ      -0.0000   YYZZ     -20.9161
      XZZZ      -0.0000   YZZZ       0.0000   ZZZZ     -87.1896
 -----------------------------------------------------------------
Archival summary:
1\1\n0091.mhg0\SP\ProcedureUnspecified\BasisUnspecified\13(1-,1)\yhljason\MonSep2102:25:352020MonSep2102:25:352020\0\\#,ProcedureUnspecified,BasisUnspecified,\\-1,1\C\H,1,1.09901\H,1,1.09901,2,109.73\H,1,1.09901,2,109.73,3,-120.64,0\\HF=-39.5258416\\@

 Total job time:  1594.44s(wall), 9123.95s(cpu) 
 Mon Sep 21 02:25:35 2020

        *************************************************************
        *                                                           *
        *  Thank you very much for using Q-Chem.  Have a nice day.  *
        *                                                           *
        *************************************************************


