Q-Chem Developer Version!
                  Welcome to Q-Chem
     A Quantum Leap Into The Future Of Chemistry


 Q-Chem 5.1, Q-Chem, Inc., Pleasanton, CA (2018)

 Yihan Shao,  Zhengting Gan,  E. Epifanovsky,  A. T. B. Gilbert,  M. Wormit,  
 J. Kussmann,  A. W. Lange,  A. Behn,  Jia Deng,  Xintian Feng,  D. Ghosh,  
 M. Goldey,  P. R. Horn,  L. D. Jacobson,  I. Kaliman,  T. Kus,  A. Landau,  
 Jie Liu,  E. I. Proynov,  R. M. Richard,  R. P. Steele,  E. J. Sundstrom,  
 H. L. Woodcock III,  P. M. Zimmerman,  D. Zuev,  B. Albrecht,  E. Alguire,  
 S. A. Baeppler,  D. Barton,  Z. Benda,  Y. A. Bernard,  E. J. Berquist,  
 K. B. Bravaya,  H. Burton,  D. Casanova,  Chun-Min Chang,  Yunqing Chen,  
 A. Chien,  K. D. Closser,  M. P. Coons,  S. Coriani,  S. Dasgupta,  
 A. L. Dempwolff,  M. Diedenhofen,  Hainam Do,  R. G. Edgar,  Po-Tung Fang,  
 S. Faraji,  S. Fatehi,  Qingguo Feng,  K. D. Fenk,  J. Fosso-Tande,  
 Qinghui Ge,  A. Ghysels,  G. Gidofalvi,  J. Gomes,  J. Gonthier,  A. Gunina,  
 D. Hait,  M. W. D. Hanson-Heine,  P. H. P. Harbach,  A. W. Hauser,  
 J. E. Herr,  E. G. Hohenstein,  Z. C. Holden,  Kerwin Hui,  B. C. Huynh,  
 T.-C. Jagau,  Hyunjun Ji,  B. Kaduk,  K. Khistyaev,  Jaehoon Kim,  
 P. Klunzinger,  K. Koh,  D. Kosenkov,  L. Koulias,  T. Kowalczyk,  
 C. M. Krauter,  A. Kunitsa,  Ka Un Lao,  A. Laurent,  K. V. Lawler,  
 Joonho Lee,  D. Lefrancois,  S. Lehtola,  D. S. Levine,  Yi-Pei Li,  
 You-Sheng Lin,  Fenglai Liu,  E. Livshits,  A. Luenser,  P. Manohar,  
 E. Mansoor,  S. F. Manzer,  Shan-Ping Mao,  Yuezhi Mao,  N. Mardirossian,  
 A. V. Marenich,  T. Markovich,  L. A. Martinez-Martinez,  S. A. Maurer,  
 N. J. Mayhall,  S. C. McKenzie,  J.-M. Mewes,  A. F. Morrison,  
 J. W. Mullinax,  K. Nanda,  T. S. Nguyen-Beck,  R. Olivares-Amaya,  
 J. A. Parkhill,  T. M. Perrine,  F. Plasser,  P. Pokhilko,  S. Prager,  
 A. Prociuk,  E. Ramos,  D. R. Rehn,  F. Rob,  M. Schneider,  N. Sergueev,  
 S. M. Sharada,  S. Sharma,  D. W. Small,  T. Stauch,  T. Stein,  
 Yu-Chuan Su,  A. J. W. Thom,  A. Tkatchenko,  T. Tsuchimochi,  N. M. Tubman,  
 L. Vogt,  M. L. Vidal,  O. Vydrov,  M. A. Watson,  J. Wenzel,  
 M. de Wergifosse,  T. A. Wesolowski,  A. White,  J. Witte,  A. Yamada,  
 Jun Yang,  K. Yao,  S. Yeganeh,  S. R. Yost,  Zhi-Qiang You,  A. Zech,  
 Igor Ying Zhang,  Xing Zhang,  Yan Zhao,  Ying Zhu,  B. R. Brooks,  
 G. K. L. Chan,  C. J. Cramer,  M. S. Gordon,  W. J. Hehre,  A. Klamt,  
 M. W. Schmidt,  C. D. Sherrill,  D. G. Truhlar,  A. Aspuru-Guzik,  R. Baer,  
 A. T. Bell,  N. A. Besley,  Jeng-Da Chai,  A. E. DePrince, III,  
 R. A. DiStasio Jr.,  A. Dreuw,  B. D. Dunietz,  T. R. Furlani,  
 Chao-Ping Hsu,  Yousung Jung,  Jing Kong,  D. S. Lambrecht,  WanZhen Liang,  
 C. Ochsenfeld,  V. A. Rassolov,  L. V. Slipchenko,  J. E. Subotnik,  
 T. Van Voorhis,  J. M. Herbert,  A. I. Krylov,  P. M. W. Gill,  M. Head-Gordon

 Contributors to earlier versions of Q-Chem not listed above: 
 R. D. Adamson,  B. Austin,  J. Baker,  G. J. O. Beran,  K. Brandhorst,  
 S. T. Brown,  E. F. C. Byrd,  A. K. Chakraborty,  C.-L. Cheng,  
 Siu Hung Chien,  D. M. Chipman,  D. L. Crittenden,  H. Dachsel,  
 R. J. Doerksen,  A. D. Dutoi,  L. Fusti-Molnar,  W. A. Goddard III,  
 A. Golubeva-Zadorozhnaya,  S. R. Gwaltney,  G. Hawkins,  A. Heyden,  
 S. Hirata,  G. Kedziora,  F. J. Keil,  C. Kelley,  Jihan Kim,  R. A. King,  
 R. Z. Khaliullin,  P. P. Korambath,  W. Kurlancheek,  A. M. Lee,  M. S. Lee,  
 S. V. Levchenko,  Ching Yeh Lin,  D. Liotard,  R. C. Lochan,  I. Lotan,  
 P. E. Maslen,  N. Nair,  D. P. O'Neill,  D. Neuhauser,  E. Neuscamman,  
 C. M. Oana,  R. Olson,  B. Peters,  R. Peverati,  P. A. Pieniazek,  
 Y. M. Rhee,  J. Ritchie,  M. A. Rohrdanz,  E. Rosta,  N. J. Russ,  
 H. F. Schaefer III,  N. E. Schultz,  N. Shenvi,  A. C. Simmonett,  A. Sodt,  
 D. Stuck,  K. S. Thanthiriwatte,  V. Vanovschi,  Tao Wang,  A. Warshel,  
 C. F. Williams,  Q. Wu,  X. Xu,  W. Zhang

 Please cite Q-Chem as follows:
 Y. Shao et al., Mol. Phys. 113, 184-215 (2015)
 DOI: 10.1080/00268976.2014.952696

 Q-Chem 5.1.1 for Intel X86 EM64T Linux

 Parts of Q-Chem use Armadillo 8.300.2 (Tropical Shenanigans).
 http://arma.sourceforge.net/

 Q-Chem begins on Mon Aug 24 22:07:41 2020  

Host: n0094.mhg0
0

     Scratch files written to /local/scratch/users/yhljason/CSO_hf_aug-cc-pcV5Z.inp20200824203434//
Input Ideriv = 2
Curr. Ideriv = -1
Max.  Ideriv = 2

Checking the input file for inconsistencies... 	...done.

--------------------------------------------------------------
User input:
--------------------------------------------------------------
$molecule
0 1
C1      0.0000  0.0000  0.0000
O2      0.0000  0.0000  1.1600
S3      0.0000  0.0000  -1.5600
$end

$rem
jobtype sp
method hf
xc_grid 000099000590
basis aug-cc-pcV5Z
max_scf_cycles 200
thresh 14
scf_convergence 8
scf_algorithm gdm
symmetry false
sym_ignore true
unrestricted true
gen_scfman true
internal_stability_iter 15
internal_stability_davidson_iter 200
mem_total 64000
mem_static 1500
n_frozen_core 0
$end


--------------------------------------------------------------
 ----------------------------------------------------------------
             Standard Nuclear Orientation (Angstroms)
    I     Atom           X                Y                Z
 ----------------------------------------------------------------
    1      C       0.0000000000     0.0000000000     0.0000000000
    2      O       0.0000000000     0.0000000000     1.1600000000
    3      S       0.0000000000     0.0000000000    -1.5600000000
 ----------------------------------------------------------------
 Nuclear Repulsion Energy =    79.3641964458 hartrees
 There are       15 alpha and       15 beta electrons
 Requested basis set is aug-cc-pCV5Z
 There are 129 shells and 579 basis functions

 Total QAlloc Memory Limit  64000 MB
 Mega-Array Size      1467 MB
 MEM_STATIC part      1500 MB

                       Distance Matrix (Angstroms)
             C (  1)   O (  2)
   O (  2)  1.160000
   S (  3)  1.560000  2.720000
 
 A cutoff of  1.0D-14 yielded   7402 shell pairs
 There are    153258 function pairs (    302551 Cartesian)
 
 -------------------------------------------------------
 OpenMP Integral Computing Module                       
 Release: version 1.0, May 2013, Q-Chem Inc. Pittsburgh 
 -------------------------------------------------------
 Integral Job Info:
 Integral job number is                      11
 Integral operator is                         1
 short-range coefficients                     0
 long-range coefficients              100000000
 Omega coefficients                           0
 if combine SR and LR in K                    0
 Integral screening is                        0
 Integral computing path is                   2
 max size of driver memory is           6400000
 size of driver memory is               5498286
 size of scratch memory is             29792225
 max col of scratch BK array             194481
 max len of scratch array in speh3         5572
 max len of scratch index in speh4           72
 max int batch size is                      520
 min int batch size is                       52
 fixed nKL is                                25
 max L of basis functions is                  5
 order of int derivative is                   0
 number of shells is                        129
 number of basis is                         809
 number of cartesian basis is               809
 number of contracted shell pairs          7402
 number of primitive shell pairs          14351
 maxK2 (contraction) of shell pair          121
 max number of K2 of shell pair               1
 max number of CS2 of shell pair            698
 max number of PS2 of shell pair            780
 mem total for path MDJ                 1547632
 -------------------------------------------------------
 Smallest overlap matrix eigenvalue = 5.26E-06

 Scale SEOQF with 1.000000e-01/1.000000e-01/1.000000e-01

 Standard Electronic Orientation quadrupole field applied
 Nucleus-field energy     =    -0.0000000053 hartrees
 Guess from superposition of atomic densities
 Warning:  Energy on first SCF cycle will be non-variational
 SAD guess density has 30.000000 electrons

 -----------------------------------------------------------------------
  General SCF calculation program by
  Eric Jon Sundstrom, Paul Horn, Yuezhi Mao, Dmitri Zuev, Alec White,
  David Stuck, Shaama M.S., Shane Yost, Joonho Lee, David Small,
  Daniel Levine, Susi Lehtola, Hugh Burton, Evgeny Epifanovsky
 -----------------------------------------------------------------------
Running Object-Oriented UHF
performing a single roothaan step with Fock from read density so that orbitals are available to all algorithms
 LTot/LBra/LKet=          19           9          10

 Q-Chem warning:

 in GenH1, ket side, handled with new code

 LTot/LBra/LBra=          18           9           9

 Q-Chem warning:

 in GenH1, bra side, handled with new code

energy of the guess density (C=0) -510.885831867550
We will preform up to 15 macro iterations over saddle points until a stable solution is found
Energy prior to optimization (guess energy) = -510.284929783508
Begin Timing: Total SCF Calculation
Begin Timing: SCF Single Stationary Point Calculation
begin iterations for algorithm: GDM          
the SCF tolerance is set to 1.00e-08
    1    -510.2849297835      1.19e-01     00000  Descent step
    2    -510.3468909887      3.33e-02     00000  Normal BFGS step
    3    -510.3552013343      7.05e-03     00000  Normal BFGS step
    4    -510.3556564599      3.95e-03     00000  Normal BFGS step
    5    -510.3557522893      8.92e-04     00000  Normal BFGS step
    6    -510.3557594898      2.90e-04     00000  Normal BFGS step
    7    -510.3557607272      7.02e-05     00000  Normal BFGS step
    8    -510.3557607989      1.04e-05     00000  Normal BFGS step
    9    -510.3557608017      2.16e-06     00000  Normal BFGS step
   10    -510.3557608019      6.95e-07     00000  Normal BFGS step
   11    -510.3557608019      1.85e-07     00000  Normal BFGS step
   12    -510.3557608019      4.72e-08     00000  Normal BFGS step
   13    -510.3557608019      1.66e-08     00000  Normal BFGS step
   14    -510.3557608019      1.15e-08     00000  Normal BFGS step
   15    -510.3557608019      8.19e-10     00000 Convergence criterion met
Timing for Single Stationary Point: 10205.00s (wall), 162283.19s (cpu)
Begin Timing: Stability
===================================================
Beginning Test for Internal Stability
===================================================
generating davidson guess vectors based on koopmans excitations
    1      3.61e+00     00000 Davidson Iteration
    2      1.95e+00     00000 Davidson Iteration
    3      3.25e-01     00000 Davidson Iteration
    4      1.01e-01     00000 Davidson Iteration
    5      5.02e-02     00000 Davidson Iteration
    6      5.02e-02     00000 Davidson Iteration
    7      5.03e-02     00000 Davidson Iteration
    8      5.03e-02     00000 Davidson Iteration
    9      7.55e-02     00000 Davidson Iteration
   10      5.01e-02     00000 Davidson Iteration
   11      4.54e-02     00000 Davidson Iteration
   12      4.03e-02     00000 Davidson Iteration
   13      5.78e-03     00000 Davidson Iteration
   14      6.34e-03     00000 Davidson Iteration
   15      6.51e-03     00000 Davidson Iteration
   16      5.08e-03     00000 Davidson Iteration
   17      3.79e-03     00000 Davidson Iteration
   18      2.96e-03     00000 Davidson Iteration
   19      5.95e-04     00000 Davidson Iteration
   20      5.25e-04     00000 Davidson Iteration
   21      3.42e-04     00000 Davidson Iteration
   22      1.67e-04     00000 Davidson Iteration
   23      7.09e-05     00000 Davidson Iteration
   24      1.03e-03     00000 Davidson Iteration
   25      2.46e-04     00000 Davidson Iteration
   26      1.29e-04     00000 Davidson Iteration
   27      5.16e-05     00000 Davidson Converged
converged_eigenvalues
   0.1978
   0.1394
Threshold for negative eigenvalues: -1.0e-05
solution was a local minimum (stable)
===================================================
End Test for Internal Stability
===================================================
Our SCF solution is stable!
Timing for Total SCF: 39603.00s (wall), 562811.08s (cpu)
 Total energy in the final basis set =     -510.3557608019
<S^2> =         -0.000000000
    ==================================================
              The end of Object-Oriented SCFman       
    ==================================================
 
 --------------------------------------------------------------
 
                    Orbital Energies (a.u.)
 --------------------------------------------------------------
 
 Alpha MOs
 -- Occupied --
-91.991 -20.655 -11.436  -8.995  -6.676  -6.674  -6.674  -1.503
 -1.091  -0.778  -0.658  -0.658  -0.638  -0.421  -0.421
 -- Virtual --
  0.037   0.047   0.058   0.058   0.078   0.078   0.080   0.111
  0.111   0.141   0.148   0.156   0.156   0.176   0.182   0.182
  0.201   0.253   0.253   0.257   0.257   0.277   0.277   0.288
  0.329   0.344   0.344   0.345   0.418   0.429   0.429   0.446
  0.446   0.450   0.450   0.471   0.492   0.492   0.547   0.547
  0.555   0.568   0.568   0.594   0.594   0.600   0.613   0.613
  0.627   0.627   0.661   0.691   0.740   0.740   0.755   0.755
  0.784   0.845   0.858   0.858   0.895   0.895   1.003   1.003
  1.046   1.046   1.071   1.071   1.090   1.141   1.149   1.149
  1.182   1.182   1.183   1.183   1.194   1.194   1.198   1.222
  1.222   1.273   1.273   1.275   1.288   1.288   1.307   1.307
  1.321   1.350   1.368   1.368   1.398   1.461   1.461   1.533
  1.533   1.603   1.605   1.605   1.627   1.627   1.667   1.667
  1.674   1.680   1.680   1.829   1.829   1.842   1.842   1.929
  2.029   2.029   2.048   2.048   2.183   2.189   2.189   2.298
  2.308   2.308   2.354   2.377   2.377   2.423   2.423   2.519
  2.576   2.576   2.645   2.645   2.666   2.666   2.698   2.698
  2.701   2.701   2.748   2.786   2.786   2.797   2.797   2.821
  2.849   2.849   2.914   2.914   2.944   2.944   2.959   2.959
  2.972   2.972   3.007   3.134   3.134   3.139   3.139   3.193
  3.193   3.252   3.338   3.338   3.343   3.357   3.357   3.432
  3.432   3.475   3.475   3.531   3.531   3.544   3.602   3.602
  3.689   3.694   3.694   3.715   3.715   3.947   3.997   3.997
  4.016   4.016   4.048   4.053   4.053   4.088   4.088   4.189
  4.189   4.281   4.484   4.484   4.513   4.513   4.659   4.659
  4.701   4.712   4.712   4.864   4.899   4.899   4.921   4.921
  5.033   5.033   5.064   5.064   5.143   5.152   5.152   5.411
  5.411   5.420   5.420   5.558   5.704   5.704   5.898   5.898
  5.937   5.937   5.946   5.976   6.156   6.156   6.163   6.163
  6.218   6.218   6.260   6.260   6.276   6.276   6.312   6.312
  6.410   6.410   6.445   6.532   6.532   6.596   6.664   6.664
  6.793   6.793   6.874   7.105   7.105   7.123   7.123   7.191
  7.191   7.225   7.232   7.232   7.364   7.364   7.401   7.401
  7.469   7.654   7.654   7.668   7.668   7.710   7.710   8.037
  8.133   8.269   8.269   8.393   8.393   8.446   8.446   8.668
  8.695   8.695   8.860   8.860   8.896   9.123   9.123   9.194
  9.194   9.496   9.496   9.711   9.711   9.865   9.865   9.910
  9.910   9.978  10.035  10.170  10.170  10.265  10.265  10.292
 10.292  10.484  10.484  10.573  10.595  10.595  10.663  10.663
 10.970  11.048  11.048  11.116  11.116  11.745  11.897  11.897
 11.923  11.923  12.533  12.808  12.811  12.811  12.940  12.940
 13.925  14.531  14.531  14.990  14.990  15.749  16.003  16.003
 16.143  16.143  16.218  16.218  16.418  16.464  16.464  16.665
 16.665  16.763  16.976  16.976  17.158  17.158  17.317  17.672
 17.672  17.721  19.091  19.091  19.316  19.316  19.395  19.438
 19.438  19.657  19.657  19.919  19.919  20.064  20.064  20.232
 21.478  21.478  22.203  22.203  22.344  22.344  22.408  22.578
 22.578  23.052  23.052  23.776  23.835  23.835  24.673  24.956
 28.372  28.372  29.423  31.651  34.235  34.235  34.247  34.247
 34.307  34.307  34.501  34.501  34.547  35.480  35.480  36.887
 36.887  38.611  38.903  38.903  39.479  40.577  45.843  45.843
 45.928  45.928  46.129  46.129  46.483  46.690  46.690  47.010
 47.010  47.588  47.588  48.685  50.675  52.058  52.058  52.594
 52.594  53.331  59.858  59.858  61.513  61.513  61.580  62.301
 62.301  62.772  71.809  71.809  72.075  72.075  72.784  72.784
 73.284  73.423  73.423  74.246  83.933  86.628  86.628  86.628
 86.628  86.628  86.629  86.629  86.630  86.630  86.633  86.633
100.639 107.217 107.217 107.222 107.222 107.248 107.248 107.332
107.332 107.372 107.547 107.547 107.966 107.966 108.524 108.524
109.392 109.655 118.135 118.135 118.580 118.580 119.140 122.810
122.810 122.870 122.870 123.020 123.020 123.355 130.288 165.687
165.687 167.131 167.357 167.357 167.364 167.364 167.376 167.376
167.395 167.395 167.434 181.489 181.489 182.060 182.060 182.330
188.070 188.070 188.210 188.210 188.434 188.434 188.909 195.198
195.198 195.884 221.482 245.662 245.662 245.665 245.665 245.670
245.670 245.672 245.672 245.680 265.677 265.677 266.045 266.045
266.511 273.096 291.419 291.419 291.526 291.526 291.796 291.796
291.976 299.061 299.061 300.284 329.352 329.352 330.016 330.016
330.827 337.804 465.535 465.535 466.805 556.688 556.688 557.083
557.083 557.262 584.906 624.532 624.532 625.175 837.646 837.646
838.6641175.6961192.1572076.954
 
 Beta MOs
 -- Occupied --
-91.991 -20.655 -11.436  -8.995  -6.676  -6.674  -6.674  -1.503
 -1.091  -0.778  -0.658  -0.658  -0.638  -0.421  -0.421
 -- Virtual --
  0.037   0.047   0.058   0.058   0.078   0.078   0.080   0.111
  0.111   0.141   0.148   0.156   0.156   0.176   0.182   0.182
  0.201   0.253   0.253   0.257   0.257   0.277   0.277   0.288
  0.329   0.344   0.344   0.345   0.418   0.429   0.429   0.446
  0.446   0.450   0.450   0.471   0.492   0.492   0.547   0.547
  0.555   0.568   0.568   0.594   0.594   0.600   0.613   0.613
  0.627   0.627   0.661   0.691   0.740   0.740   0.755   0.755
  0.784   0.845   0.858   0.858   0.895   0.895   1.003   1.003
  1.046   1.046   1.071   1.071   1.090   1.141   1.149   1.149
  1.182   1.182   1.183   1.183   1.194   1.194   1.198   1.222
  1.222   1.273   1.273   1.275   1.288   1.288   1.307   1.307
  1.321   1.350   1.368   1.368   1.398   1.461   1.461   1.533
  1.533   1.603   1.605   1.605   1.627   1.627   1.667   1.667
  1.674   1.680   1.680   1.829   1.829   1.842   1.842   1.929
  2.029   2.029   2.048   2.048   2.183   2.189   2.189   2.298
  2.308   2.308   2.354   2.377   2.377   2.423   2.423   2.519
  2.576   2.576   2.645   2.645   2.666   2.666   2.698   2.698
  2.701   2.701   2.748   2.786   2.786   2.797   2.797   2.821
  2.849   2.849   2.914   2.914   2.944   2.944   2.959   2.959
  2.972   2.972   3.007   3.134   3.134   3.139   3.139   3.193
  3.193   3.252   3.338   3.338   3.343   3.357   3.357   3.432
  3.432   3.475   3.475   3.531   3.531   3.544   3.602   3.602
  3.689   3.694   3.694   3.715   3.715   3.947   3.997   3.997
  4.016   4.016   4.048   4.053   4.053   4.088   4.088   4.189
  4.189   4.281   4.484   4.484   4.513   4.513   4.659   4.659
  4.701   4.712   4.712   4.864   4.899   4.899   4.921   4.921
  5.033   5.033   5.064   5.064   5.143   5.152   5.152   5.411
  5.411   5.420   5.420   5.558   5.704   5.704   5.898   5.898
  5.937   5.937   5.946   5.976   6.156   6.156   6.163   6.163
  6.218   6.218   6.260   6.260   6.276   6.276   6.312   6.312
  6.410   6.410   6.445   6.532   6.532   6.596   6.664   6.664
  6.793   6.793   6.874   7.105   7.105   7.123   7.123   7.191
  7.191   7.225   7.232   7.232   7.364   7.364   7.401   7.401
  7.469   7.654   7.654   7.668   7.668   7.710   7.710   8.037
  8.133   8.269   8.269   8.393   8.393   8.446   8.446   8.668
  8.695   8.695   8.860   8.860   8.896   9.123   9.123   9.194
  9.194   9.496   9.496   9.711   9.711   9.865   9.865   9.910
  9.910   9.978  10.035  10.170  10.170  10.265  10.265  10.292
 10.292  10.484  10.484  10.573  10.595  10.595  10.663  10.663
 10.970  11.048  11.048  11.116  11.116  11.745  11.897  11.897
 11.923  11.923  12.533  12.808  12.811  12.811  12.940  12.940
 13.925  14.531  14.531  14.990  14.990  15.749  16.003  16.003
 16.143  16.143  16.218  16.218  16.418  16.464  16.464  16.665
 16.665  16.763  16.976  16.976  17.158  17.158  17.317  17.672
 17.672  17.721  19.091  19.091  19.316  19.316  19.395  19.438
 19.438  19.657  19.657  19.919  19.919  20.064  20.064  20.232
 21.478  21.478  22.203  22.203  22.344  22.344  22.408  22.578
 22.578  23.052  23.052  23.776  23.835  23.835  24.673  24.956
 28.372  28.372  29.423  31.651  34.235  34.235  34.247  34.247
 34.307  34.307  34.501  34.501  34.547  35.480  35.480  36.887
 36.887  38.611  38.903  38.903  39.479  40.577  45.843  45.843
 45.928  45.928  46.129  46.129  46.483  46.690  46.690  47.010
 47.010  47.588  47.588  48.685  50.675  52.058  52.058  52.594
 52.594  53.331  59.858  59.858  61.513  61.513  61.580  62.301
 62.301  62.772  71.809  71.809  72.075  72.075  72.784  72.784
 73.284  73.423  73.423  74.246  83.933  86.628  86.628  86.628
 86.628  86.628  86.629  86.629  86.630  86.630  86.633  86.633
100.639 107.217 107.217 107.222 107.222 107.248 107.248 107.332
107.332 107.372 107.547 107.547 107.966 107.966 108.524 108.524
109.392 109.655 118.135 118.135 118.580 118.580 119.140 122.810
122.810 122.870 122.870 123.020 123.020 123.355 130.288 165.687
165.687 167.131 167.357 167.357 167.364 167.364 167.376 167.376
167.395 167.395 167.434 181.489 181.489 182.060 182.060 182.330
188.070 188.070 188.210 188.210 188.434 188.434 188.909 195.198
195.198 195.884 221.482 245.662 245.662 245.665 245.665 245.670
245.670 245.672 245.672 245.680 265.677 265.677 266.045 266.045
266.511 273.096 291.419 291.419 291.526 291.526 291.796 291.796
291.976 299.061 299.061 300.284 329.352 329.352 330.016 330.016
330.827 337.804 465.535 465.535 466.805 556.688 556.688 557.083
557.083 557.262 584.906 624.532 624.532 625.175 837.646 837.646
838.6641175.6961192.1572076.954
 --------------------------------------------------------------
 
          Ground-State Mulliken Net Atomic Charges

     Atom                 Charge (a.u.)    Spin (a.u.)
  --------------------------------------------------------
      1 C                     0.657988       0.000000
      2 O                    -0.386678       0.000000
      3 S                    -0.271310       0.000000
  --------------------------------------------------------
  Sum of atomic charges =     0.000000
  Sum of spin   charges =     0.000000

 -----------------------------------------------------------------
                    Cartesian Multipole Moments
 -----------------------------------------------------------------
    Charge (ESU x 10^10)
                -0.0000
    Dipole Moment (Debye)
         X       0.0000      Y       0.0000      Z      -0.8424
       Tot       0.8424
    Quadrupole Moments (Debye-Ang)
        XX     -23.6512     XY      -0.0000     YY     -23.6512
        XZ      -0.0000     YZ      -0.0000     ZZ     -24.1991
    Octopole Moments (Debye-Ang^2)
       XXX       0.0000    XXY       0.0000    XYY       0.0000
       YYY       0.0000    XXZ      15.2619    XYZ      -0.0000
       YYZ      15.2619    XZZ       0.0000    YZZ       0.0000
       ZZZ      33.2852
    Hexadecapole Moments (Debye-Ang^3)
      XXXX     -27.7621   XXXY       0.0000   XXYY      -9.2540
      XYYY       0.0000   YYYY     -27.7621   XXXZ      -0.0000
      XXYZ       0.0000   XYYZ      -0.0000   YYYZ       0.0000
      XXZZ     -48.5917   XYZZ       0.0000   YYZZ     -48.5917
      XZZZ      -0.0000   YZZZ      -0.0000   ZZZZ    -233.2500
 -----------------------------------------------------------------
Archival summary:
1\1\n0094.mhg0\SP\HF\BasisUnspecified\111\yhljason\TueAug2509:20:562020TueAug2509:20:562020\0\\#,HF,BasisUnspecified,\\0,1\S\C,1,1.56\O,2,1.16,1,180\\HF=-510.355761\\@

 Total job time:  40395.65s(wall), 575091.54s(cpu) 
 Tue Aug 25 09:20:56 2020

        *************************************************************
        *                                                           *
        *  Thank you very much for using Q-Chem.  Have a nice day.  *
        *                                                           *
        *************************************************************


