                  Welcome to Q-Chem
     A Quantum Leap Into The Future Of Chemistry


 Q-Chem 5.3 (devel), Q-Chem, Inc., Pleasanton, CA (2020)

 Yihan Shao,  Zhengting Gan,  E. Epifanovsky,  A. T. B. Gilbert,  M. Wormit,  
 J. Kussmann,  A. W. Lange,  A. Behn,  Jia Deng,  Xintian Feng,  D. Ghosh,  
 M. Goldey,  P. R. Horn,  L. D. Jacobson,  I. Kaliman,  T. Kus,  A. Landau,  
 Jie Liu,  E. I. Proynov,  R. M. Richard,  R. P. Steele,  E. J. Sundstrom,  
 H. L. Woodcock III,  P. M. Zimmerman,  D. Zuev,  B. Alam,  B. Albrecht,  
 E. Alguire,  S. A. Baeppler,  D. Barton,  Z. Benda,  Y. A. Bernard,  
 E. J. Berquist,  K. B. Bravaya,  H. Burton,  K. Carter-Fenk,  D. Casanova,  
 Chun-Min Chang,  Yunqing Chen,  A. Chien,  K. D. Closser,  M. P. Coons,  
 S. Coriani,  S. Dasgupta,  A. L. Dempwolff,  M. Diedenhofen,  Hainam Do,  
 R. G. Edgar,  Po-Tung Fang,  S. Faraji,  S. Fatehi,  Qingguo Feng,  
 J. Fosso-Tande,  J. Gayvert,  Qinghui Ge,  A. Ghysels,  G. Gidofalvi,  
 J. Gomes,  J. Gonthier,  A. Gunina,  D. Hait,  M. W. D. Hanson-Heine,  
 P. H. P. Harbach,  A. W. Hauser,  M. F. Herbst,  J. E. Herr,  
 E. G. Hohenstein,  Z. C. Holden,  Kerwin Hui,  B. C. Huynh,  T.-C. Jagau,  
 Hyunjun Ji,  B. Kaduk,  K. Khistyaev,  Jaehoon Kim,  P. Klunzinger,  K. Koh,  
 D. Kosenkov,  L. Koulias,  T. Kowalczyk,  C. M. Krauter,  A. Kunitsa,  
 Ka Un Lao,  A. Laurent,  K. V. Lawler,  Joonho Lee,  D. Lefrancois,  
 S. Lehtola,  D. S. Levine,  Yi-Pei Li,  You-Sheng Lin,  Fenglai Liu,  
 Kuan-Yu Liu,  E. Livshits,  M. Loipersberger,  A. Luenser,  P. Manohar,  
 E. Mansoor,  S. F. Manzer,  Shan-Ping Mao,  Yuezhi Mao,  N. Mardirossian,  
 A. V. Marenich,  T. Markovich,  L. A. Martinez-Martinez,  S. A. Maurer,  
 N. J. Mayhall,  S. C. McKenzie,  J.-M. Mewes,  P. Morgante,  A. F. Morrison,  
 J. W. Mullinax,  K. Nanda,  T. S. Nguyen-Beck,  R. Olivares-Amaya,  
 K. J. Oosterbaan,  J. A. Parkhill,  S. K. Paul,  F. Pavosevic,  Zheng Pei,  
 T. M. Perrine,  F. Plasser,  P. Pokhilko,  S. Prager,  A. Prociuk,  
 E. Ramos,  B. Rana,  D. R. Rehn,  F. Rob,  M. Scheurer,  M. Schneider,  
 N. Sergueev,  S. M. Sharada,  S. Sharma,  D. W. Small,  T. Stauch,  
 C. J. Stein,  T. Stein,  Yu-Chuan Su,  S. P. Veccham,  Zhen Tao,  
 A. J. W. Thom,  A. Tkatchenko,  T. Tsuchimochi,  N. M. Tubman,  L. Vogt,  
 M. L. Vidal,  O. Vydrov,  M. A. Watson,  J. Wenzel,  M. de Wergifosse,  
 T. A. Wesolowski,  A. White,  J. Witte,  A. Yamada,  Jun Yang,  K. Yao,  
 S. Yeganeh,  S. R. Yost,  Zhi-Qiang You,  A. Zech,  Igor Ying Zhang,  
 Xing Zhang,  Yan Zhao,  Ying Zhu,  B. R. Brooks,  G. K. L. Chan,  
 C. J. Cramer,  M. S. Gordon,  W. J. Hehre,  A. Klamt,  M. W. Schmidt,  
 C. D. Sherrill,  D. G. Truhlar,  A. Aspuru-Guzik,  R. Baer,  A. T. Bell,  
 N. A. Besley,  Jeng-Da Chai,  A. E. DePrince, III,  R. A. DiStasio Jr.,  
 A. Dreuw,  B. D. Dunietz,  T. R. Furlani,  Chao-Ping Hsu,  Yousung Jung,  
 Jing Kong,  D. S. Lambrecht,  WanZhen Liang,  C. Ochsenfeld,  
 V. A. Rassolov,  L. V. Slipchenko,  J. E. Subotnik,  T. Van Voorhis,  
 J. M. Herbert,  A. I. Krylov,  P. M. W. Gill,  M. Head-Gordon

 Contributors to earlier versions of Q-Chem not listed above: 
 R. D. Adamson,  B. Austin,  J. Baker,  G. J. O. Beran,  K. Brandhorst,  
 S. T. Brown,  E. F. C. Byrd,  A. K. Chakraborty,  C.-L. Cheng,  
 Siu Hung Chien,  D. M. Chipman,  D. L. Crittenden,  H. Dachsel,  
 R. J. Doerksen,  A. D. Dutoi,  L. Fusti-Molnar,  W. A. Goddard III,  
 A. Golubeva-Zadorozhnaya,  S. R. Gwaltney,  G. Hawkins,  A. Heyden,  
 S. Hirata,  G. Kedziora,  F. J. Keil,  C. Kelley,  Jihan Kim,  R. A. King,  
 R. Z. Khaliullin,  P. P. Korambath,  W. Kurlancheek,  A. M. Lee,  M. S. Lee,  
 S. V. Levchenko,  Ching Yeh Lin,  D. Liotard,  R. C. Lochan,  I. Lotan,  
 P. E. Maslen,  N. Nair,  D. P. O'Neill,  D. Neuhauser,  E. Neuscamman,  
 C. M. Oana,  R. Olson,  B. Peters,  R. Peverati,  P. A. Pieniazek,  
 Y. M. Rhee,  J. Ritchie,  M. A. Rohrdanz,  E. Rosta,  N. J. Russ,  
 H. F. Schaefer III,  N. E. Schultz,  N. Shenvi,  A. C. Simmonett,  A. Sodt,  
 D. Stuck,  K. S. Thanthiriwatte,  V. Vanovschi,  Tao Wang,  A. Warshel,  
 C. F. Williams,  Q. Wu,  X. Xu,  W. Zhang

 Please cite Q-Chem as follows:
 Y. Shao et al., Mol. Phys. 113, 184-215 (2015)
 DOI: 10.1080/00268976.2014.952696

 Q-Chem 5.3.0 for Intel X86 EM64T Linux

 Parts of Q-Chem use Armadillo 9.800.1 (Horizon Scraper).
 http://arma.sourceforge.net/

 Q-Chem begins on Sun Aug 23 22:31:50 2020  

n0086.mhg0
Host: 0

     Scratch files written to /local/scratch/users/yhljason/Mg2_N12_aug-pc-4.inp20200823214141//
Processing $rem in /clusterfs/mhg/diptarka/qchem_transmom//config/preferences:
Processing $rem in /global/home/users/yhljason/.qchemrc:

Checking the input file for inconsistencies... 	...done.

--------------------------------------------------------------
User input:
--------------------------------------------------------------
$molecule
0 1
Mg1	0.0000	0.0000	0.0000
Mg2	0.0000	0.0000	3.8905
$end

$rem
jobtype sp
method N12
xc_grid 000099000590
basis aug-pc-4
max_scf_cycles 200
thresh 14
scf_convergence 8
scf_algorithm gdm
symmetry false
sym_ignore true
unrestricted true
gen_scfman true
internal_stability_iter 15
internal_stability_davidson_iter 200
mem_total 64000
mem_static 1500
n_frozen_core 0
$end


--------------------------------------------------------------
 ----------------------------------------------------------------
             Standard Nuclear Orientation (Angstroms)
    I     Atom           X                Y                Z
 ----------------------------------------------------------------
    1      Mg      0.0000000000     0.0000000000     0.0000000000
    2      Mg      0.0000000000     0.0000000000     3.8905000000
 ----------------------------------------------------------------
 Nuclear Repulsion Energy =          19.58656172 hartrees
 There are       12 alpha and       12 beta electrons
 Requested basis set is aug-pc-4
 There are 46 shells and 170 basis functions

 Total QAlloc Memory Limit  64000 MB
 Mega-Array Size      1467 MB
 MEM_STATIC part      1500 MB

                       Distance Matrix (Angstroms)
             Mg(  1)
   Mg(  2)  3.890500

 A cutoff of  1.0D-14 yielded   1061 shell pairs
 There are     14709 function pairs (     24814 Cartesian)
 Smallest overlap matrix eigenvalue = 6.23E-05

 Scale SEOQF with 1.000000e-01/1.000000e-01/1.000000e-02

 Standard Electronic Orientation quadrupole field applied
 Nucleus-field energy     =    -0.0000000019 hartrees
 Guess from superposition of atomic densities
 Warning:  Energy on first SCF cycle will be non-variational
 SAD guess density has 24.000000 electrons

 -----------------------------------------------------------------------
  General SCF calculation program by
  Eric Jon Sundstrom, Paul Horn, Yuezhi Mao, Dmitri Zuev, Alec White,
  David Stuck, Shaama M.S., Shane Yost, Joonho Lee, David Small,
  Daniel Levine, Susi Lehtola, Hugh Burton, Evgeny Epifanovsky,
  Bang C. Huynh
 -----------------------------------------------------------------------
 Exchange:  N12      Correlation:  N12
 Using Euler-Maclaurin-Lebedev (99,590) quadrature formula
Running Object-Oriented UKS (UHF)
performing a single roothaan step with Fock from read density so that orbitals are available to all algorithms
 using 8 threads for integral computing
 -------------------------------------------------------
 OpenMP Integral computing Module                
 Release: version 1.0, May 2013, Q-Chem Inc. Pittsburgh 
 -------------------------------------------------------
energy of the guess density (C=0) -400.154008720539
 using 8 threads for integral computing
 -------------------------------------------------------
 OpenMP Integral computing Module                
 Release: version 1.0, May 2013, Q-Chem Inc. Pittsburgh 
 -------------------------------------------------------
We will preform up to 15 macro iterations over saddle points until a stable solution is found
Energy prior to optimization (guess energy) = -400.150312574618
Begin Timing: Total SCF Calculation
Begin Timing: SCF Single Stationary Point Calculation
begin iterations for algorithm: GDM          
the SCF tolerance is set to 1.00e-08
    1    -400.1503125746      1.05e-02     00000  Normal BFGS step
    2    -400.1505128652      1.58e-02     00000  Normal BFGS step
    3    -400.1508145152      3.05e-03     00000  Normal BFGS step
    4    -400.1508213243      1.33e-03     00000  Normal BFGS step
    5    -400.1508280509      3.14e-05     00000  Normal BFGS step
    6    -400.1508280540      4.48e-06     00000  Normal BFGS step
    7    -400.1508280541      2.58e-07     00000  Normal BFGS step
    8    -400.1508280541      3.11e-08     00000  Normal BFGS step
    9    -400.1508280541      5.22e-09     00000 Convergence criterion met
Timing for Single Stationary Point: 32.00s (wall), 231.64s (cpu)
Begin Timing: Stability
===================================================
Beginning Test for Internal Stability
===================================================
generating davidson guess vectors based on koopmans excitations
    1      4.05e-01     00000 Davidson Iteration
    2      2.03e-01     00000 Davidson Iteration
    3      2.45e-02     00000 Davidson Iteration
    4      1.48e-02     00000 Davidson Iteration
    5      3.84e-03     00000 Davidson Iteration
    6      2.25e-03     00000 Davidson Iteration
    7      1.06e-03     00000 Davidson Iteration
    8      3.78e-04     00000 Davidson Iteration
    9      7.43e-05     00000 Davidson Iteration
   10      2.67e-02     00000 Davidson Iteration
   11      1.45e-02     00000 Davidson Iteration
   12      7.45e-03     00000 Davidson Iteration
   13      6.40e-03     00000 Davidson Iteration
   14      2.10e-02     00000 Davidson Iteration
   15      5.16e-03     00000 Davidson Iteration
   16      4.12e-03     00000 Davidson Iteration
   17      3.20e-03     00000 Davidson Iteration
   18      3.10e-03     00000 Davidson Iteration
   19      1.35e-03     00000 Davidson Iteration
   20      1.49e-03     00000 Davidson Iteration
   21      1.31e-03     00000 Davidson Iteration
   22      5.99e-04     00000 Davidson Iteration
   23      3.48e-04     00000 Davidson Iteration
   24      7.18e-05     00000 Davidson Converged
converged_eigenvalues
   0.0915
   0.1004
Threshold for negative eigenvalues: -1.0e-05
solution was a local minimum (stable)
===================================================
End Test for Internal Stability
===================================================
Timing for Internal Stability: 297.00s (wall), 2263.79s (cpu)
Our SCF solution is stable!
Timing for Total SCF: 329.00s (wall), 2495.45s (cpu)
 Total energy in the final basis set =     -400.1508280541
<S^2> =          0.000000000
    ==================================================
              The end of Object-Oriented SCFman       
    ==================================================

 --------------------------------------------------------------

                    Orbital Energies (a.u.)
 --------------------------------------------------------------

 Alpha MOs
 -- Occupied --
-46.1200 -46.1200  -2.9361  -2.9361  -1.7858  -1.7858  -1.7858  -1.7858
 -1.7852  -1.7852  -0.1828  -0.1471
 -- Virtual --
 -0.0627  -0.0572  -0.0572  -0.0304  -0.0304  -0.0183  -0.0177  -0.0022
 -0.0022  -0.0001   0.0087   0.0087   0.0111   0.0226   0.0432   0.0432
  0.0466   0.0567   0.0567   0.0599   0.0668   0.0722   0.0722   0.0731
  0.0731   0.0778   0.0778   0.0806   0.1059   0.1059   0.1165   0.1360
  0.1360   0.1511   0.1511   0.1639   0.1685   0.1685   0.1754   0.1817
  0.1817   0.2091   0.2095   0.2142   0.2142   0.2154   0.2154   0.2336
  0.2396   0.2396   0.2411   0.2411   0.2611   0.2611   0.2628   0.2628
  0.2758   0.2758   0.2782   0.2782   0.2865   0.3001   0.3001   0.3339
  0.3339   0.3400   0.3586   0.3586   0.3651   0.3675   0.3675   0.3875
  0.3875   0.3981   0.3981   0.4213   0.4785   0.4785   0.5229   0.5229
  0.5640   0.5752   0.6641   0.6740   0.8832   0.8996   0.8996   0.9516
  0.9516   0.9667   0.9667   0.9740   0.9740   0.9831   0.9831   0.9878
  0.9878   0.9965   0.9965   0.9980   1.0163   1.0163   1.0309   1.1523
  1.5198   1.5198   1.5400   1.5640   1.5640   1.5671   1.5671   1.5707
  1.5707   1.5707   1.5707   1.5746   1.5746   1.5865   1.5865   1.6330
  1.6330   1.6651   1.7061   1.7061   1.7066   1.7066   1.7574   1.7574
  1.7788   1.7788   1.8230   1.8773   4.6446   4.6555   4.6555   4.6577
  4.6577   4.6609   4.6609   4.6627   4.6627   4.6665   4.6665   4.6688
  4.6688   4.6820   4.7696   4.8305   7.5495   7.5495   7.5502   7.5502
  7.5749   7.5749   7.5891   7.5891   7.6056   7.6281

 Beta MOs
 -- Occupied --
-46.1200 -46.1200  -2.9361  -2.9361  -1.7858  -1.7858  -1.7858  -1.7858
 -1.7852  -1.7852  -0.1828  -0.1471
 -- Virtual --
 -0.0627  -0.0572  -0.0572  -0.0304  -0.0304  -0.0183  -0.0177  -0.0022
 -0.0022  -0.0001   0.0087   0.0087   0.0111   0.0226   0.0432   0.0432
  0.0466   0.0567   0.0567   0.0599   0.0668   0.0722   0.0722   0.0731
  0.0731   0.0778   0.0778   0.0806   0.1059   0.1059   0.1165   0.1360
  0.1360   0.1511   0.1511   0.1639   0.1685   0.1685   0.1754   0.1817
  0.1817   0.2091   0.2095   0.2142   0.2142   0.2154   0.2154   0.2336
  0.2396   0.2396   0.2411   0.2411   0.2611   0.2611   0.2628   0.2628
  0.2758   0.2758   0.2782   0.2782   0.2865   0.3001   0.3001   0.3339
  0.3339   0.3400   0.3586   0.3586   0.3651   0.3675   0.3675   0.3875
  0.3875   0.3981   0.3981   0.4213   0.4785   0.4785   0.5229   0.5229
  0.5640   0.5752   0.6641   0.6740   0.8832   0.8996   0.8996   0.9516
  0.9516   0.9667   0.9667   0.9740   0.9740   0.9831   0.9831   0.9878
  0.9878   0.9965   0.9965   0.9980   1.0163   1.0163   1.0309   1.1523
  1.5198   1.5198   1.5400   1.5640   1.5640   1.5671   1.5671   1.5707
  1.5707   1.5707   1.5707   1.5746   1.5746   1.5865   1.5865   1.6330
  1.6330   1.6651   1.7061   1.7061   1.7066   1.7066   1.7574   1.7574
  1.7788   1.7788   1.8230   1.8773   4.6446   4.6555   4.6555   4.6577
  4.6577   4.6609   4.6609   4.6627   4.6627   4.6665   4.6665   4.6688
  4.6688   4.6820   4.7696   4.8305   7.5495   7.5495   7.5502   7.5502
  7.5749   7.5749   7.5891   7.5891   7.6056   7.6281
 --------------------------------------------------------------

          Ground-State Mulliken Net Atomic Charges

     Atom                 Charge (a.u.)    Spin (a.u.)
  --------------------------------------------------------
      1 Mg                    0.000000       0.000000
      2 Mg                   -0.000000       0.000000
  --------------------------------------------------------
  Sum of atomic charges =    -0.000000
  Sum of spin   charges =     0.000000

 -----------------------------------------------------------------
                    Cartesian Multipole Moments
 -----------------------------------------------------------------
    Charge (ESU x 10^10)
                -0.0000
    Dipole Moment (Debye)
         X      -0.0000      Y       0.0000      Z       0.0000
       Tot       0.0000
    Quadrupole Moments (Debye-Ang)
        XX     -25.1810     XY      -0.0000     YY     -25.1810
        XZ      -0.0000     YZ       0.0000     ZZ     -26.9191
    Octopole Moments (Debye-Ang^2)
       XXX      -0.0000    XXY       0.0000    XYY      -0.0000
       YYY       0.0000    XXZ     -48.9834    XYZ       0.0000
       YYZ     -48.9834    XZZ      -0.0000    YZZ       0.0000
       ZZZ    -157.0931
    Hexadecapole Moments (Debye-Ang^3)
      XXXX     -76.1332   XXXY       0.0000   XXYY     -25.3778
      XYYY       0.0000   YYYY     -76.1332   XXXZ      -0.0000
      XXYZ       0.0000   XYYZ      -0.0000   YYYZ       0.0000
      XXZZ    -220.9127   XYZZ       0.0000   YYZZ    -220.9127
      XZZZ      -0.0000   YZZZ       0.0000   ZZZZ   -1311.4954
 -----------------------------------------------------------------
Archival summary:
1\1\n0086.mhg0\SP\ProcedureUnspecified\BasisUnspecified\g2\yhljason\SunAug2322:37:252020SunAug2322:37:252020\0\\#,ProcedureUnspecified,BasisUnspecified,\\0,1\Mg\Mg,1,3.8905\\\@

 Total job time:  335.43s(wall), 2537.36s(cpu) 
 Sun Aug 23 22:37:25 2020

        *************************************************************
        *                                                           *
        *  Thank you very much for using Q-Chem.  Have a nice day.  *
        *                                                           *
        *************************************************************


