                  Welcome to Q-Chem
     A Quantum Leap Into The Future Of Chemistry


 Q-Chem 5.3 (devel), Q-Chem, Inc., Pleasanton, CA (2020)

 Yihan Shao,  Zhengting Gan,  E. Epifanovsky,  A. T. B. Gilbert,  M. Wormit,  
 J. Kussmann,  A. W. Lange,  A. Behn,  Jia Deng,  Xintian Feng,  D. Ghosh,  
 M. Goldey,  P. R. Horn,  L. D. Jacobson,  I. Kaliman,  T. Kus,  A. Landau,  
 Jie Liu,  E. I. Proynov,  R. M. Richard,  R. P. Steele,  E. J. Sundstrom,  
 H. L. Woodcock III,  P. M. Zimmerman,  D. Zuev,  B. Alam,  B. Albrecht,  
 E. Alguire,  S. A. Baeppler,  D. Barton,  Z. Benda,  Y. A. Bernard,  
 E. J. Berquist,  K. B. Bravaya,  H. Burton,  K. Carter-Fenk,  D. Casanova,  
 Chun-Min Chang,  Yunqing Chen,  A. Chien,  K. D. Closser,  M. P. Coons,  
 S. Coriani,  S. Dasgupta,  A. L. Dempwolff,  M. Diedenhofen,  Hainam Do,  
 R. G. Edgar,  Po-Tung Fang,  S. Faraji,  S. Fatehi,  Qingguo Feng,  
 J. Fosso-Tande,  J. Gayvert,  Qinghui Ge,  A. Ghysels,  G. Gidofalvi,  
 J. Gomes,  J. Gonthier,  A. Gunina,  D. Hait,  M. W. D. Hanson-Heine,  
 P. H. P. Harbach,  A. W. Hauser,  M. F. Herbst,  J. E. Herr,  
 E. G. Hohenstein,  Z. C. Holden,  Kerwin Hui,  B. C. Huynh,  T.-C. Jagau,  
 Hyunjun Ji,  B. Kaduk,  K. Khistyaev,  Jaehoon Kim,  P. Klunzinger,  K. Koh,  
 D. Kosenkov,  L. Koulias,  T. Kowalczyk,  C. M. Krauter,  A. Kunitsa,  
 Ka Un Lao,  A. Laurent,  K. V. Lawler,  Joonho Lee,  D. Lefrancois,  
 S. Lehtola,  D. S. Levine,  Yi-Pei Li,  You-Sheng Lin,  Fenglai Liu,  
 Kuan-Yu Liu,  E. Livshits,  M. Loipersberger,  A. Luenser,  P. Manohar,  
 E. Mansoor,  S. F. Manzer,  Shan-Ping Mao,  Yuezhi Mao,  N. Mardirossian,  
 A. V. Marenich,  T. Markovich,  L. A. Martinez-Martinez,  S. A. Maurer,  
 N. J. Mayhall,  S. C. McKenzie,  J.-M. Mewes,  P. Morgante,  A. F. Morrison,  
 J. W. Mullinax,  K. Nanda,  T. S. Nguyen-Beck,  R. Olivares-Amaya,  
 K. J. Oosterbaan,  J. A. Parkhill,  S. K. Paul,  F. Pavosevic,  Zheng Pei,  
 T. M. Perrine,  F. Plasser,  P. Pokhilko,  S. Prager,  A. Prociuk,  
 E. Ramos,  B. Rana,  D. R. Rehn,  F. Rob,  M. Scheurer,  M. Schneider,  
 N. Sergueev,  S. M. Sharada,  S. Sharma,  D. W. Small,  T. Stauch,  
 C. J. Stein,  T. Stein,  Yu-Chuan Su,  S. P. Veccham,  Zhen Tao,  
 A. J. W. Thom,  A. Tkatchenko,  T. Tsuchimochi,  N. M. Tubman,  L. Vogt,  
 M. L. Vidal,  O. Vydrov,  M. A. Watson,  J. Wenzel,  M. de Wergifosse,  
 T. A. Wesolowski,  A. White,  J. Witte,  A. Yamada,  Jun Yang,  K. Yao,  
 S. Yeganeh,  S. R. Yost,  Zhi-Qiang You,  A. Zech,  Igor Ying Zhang,  
 Xing Zhang,  Yan Zhao,  Ying Zhu,  B. R. Brooks,  G. K. L. Chan,  
 C. J. Cramer,  M. S. Gordon,  W. J. Hehre,  A. Klamt,  M. W. Schmidt,  
 C. D. Sherrill,  D. G. Truhlar,  A. Aspuru-Guzik,  R. Baer,  A. T. Bell,  
 N. A. Besley,  Jeng-Da Chai,  A. E. DePrince, III,  R. A. DiStasio Jr.,  
 A. Dreuw,  B. D. Dunietz,  T. R. Furlani,  Chao-Ping Hsu,  Yousung Jung,  
 Jing Kong,  D. S. Lambrecht,  WanZhen Liang,  C. Ochsenfeld,  
 V. A. Rassolov,  L. V. Slipchenko,  J. E. Subotnik,  T. Van Voorhis,  
 J. M. Herbert,  A. I. Krylov,  P. M. W. Gill,  M. Head-Gordon

 Contributors to earlier versions of Q-Chem not listed above: 
 R. D. Adamson,  B. Austin,  J. Baker,  G. J. O. Beran,  K. Brandhorst,  
 S. T. Brown,  E. F. C. Byrd,  A. K. Chakraborty,  C.-L. Cheng,  
 Siu Hung Chien,  D. M. Chipman,  D. L. Crittenden,  H. Dachsel,  
 R. J. Doerksen,  A. D. Dutoi,  L. Fusti-Molnar,  W. A. Goddard III,  
 A. Golubeva-Zadorozhnaya,  S. R. Gwaltney,  G. Hawkins,  A. Heyden,  
 S. Hirata,  G. Kedziora,  F. J. Keil,  C. Kelley,  Jihan Kim,  R. A. King,  
 R. Z. Khaliullin,  P. P. Korambath,  W. Kurlancheek,  A. M. Lee,  M. S. Lee,  
 S. V. Levchenko,  Ching Yeh Lin,  D. Liotard,  R. C. Lochan,  I. Lotan,  
 P. E. Maslen,  N. Nair,  D. P. O'Neill,  D. Neuhauser,  E. Neuscamman,  
 C. M. Oana,  R. Olson,  B. Peters,  R. Peverati,  P. A. Pieniazek,  
 Y. M. Rhee,  J. Ritchie,  M. A. Rohrdanz,  E. Rosta,  N. J. Russ,  
 H. F. Schaefer III,  N. E. Schultz,  N. Shenvi,  A. C. Simmonett,  A. Sodt,  
 D. Stuck,  K. S. Thanthiriwatte,  V. Vanovschi,  Tao Wang,  A. Warshel,  
 C. F. Williams,  Q. Wu,  X. Xu,  W. Zhang

 Please cite Q-Chem as follows:
 Y. Shao et al., Mol. Phys. 113, 184-215 (2015)
 DOI: 10.1080/00268976.2014.952696

 Q-Chem 5.3.0 for Intel X86 EM64T Linux

 Parts of Q-Chem use Armadillo 9.800.1 (Horizon Scraper).
 http://arma.sourceforge.net/

 Q-Chem begins on Mon Aug 24 00:36:11 2020  

n0099.mhg0
Host: 0

     Scratch files written to /local/scratch/users/yhljason/Na2_wM05-D_aug-pc-4.inp20200823214146//
Processing $rem in /clusterfs/mhg/diptarka/qchem_transmom//config/preferences:
Processing $rem in /global/home/users/yhljason/.qchemrc:

Checking the input file for inconsistencies... 	...done.

--------------------------------------------------------------
User input:
--------------------------------------------------------------
$molecule
0 1
Na1	0.0000	0.0000	0.0000
Na2	0.0000	0.0000	3.0789
$end

$rem
jobtype sp
method wM05-D
xc_grid 000099000590
basis aug-pc-4
max_scf_cycles 200
thresh 14
scf_convergence 8
scf_algorithm gdm
symmetry false
sym_ignore true
unrestricted true
gen_scfman true
internal_stability_iter 15
internal_stability_davidson_iter 200
mem_total 64000
mem_static 1500
n_frozen_core 0
$end


--------------------------------------------------------------
 ----------------------------------------------------------------
             Standard Nuclear Orientation (Angstroms)
    I     Atom           X                Y                Z
 ----------------------------------------------------------------
    1      Na      0.0000000000     0.0000000000     0.0000000000
    2      Na      0.0000000000     0.0000000000     3.0789000000
 ----------------------------------------------------------------
 Nuclear Repulsion Energy =          20.79515267 hartrees
 There are       11 alpha and       11 beta electrons
 Requested basis set is aug-pc-4
 There are 46 shells and 170 basis functions

 Total QAlloc Memory Limit  64000 MB
 Mega-Array Size      1467 MB
 MEM_STATIC part      1500 MB

                       Distance Matrix (Angstroms)
             Na(  1)
   Na(  2)  3.078900

 A cutoff of  1.0D-14 yielded   1077 shell pairs
 There are     14885 function pairs (     25107 Cartesian)
 Smallest overlap matrix eigenvalue = 1.16E-05

 Scale SEOQF with 1.000000e-02/1.000000e-02/1.000000e-02

 Standard Electronic Orientation quadrupole field applied
 Nucleus-field energy     =    -0.0000000011 hartrees
 Guess from superposition of atomic densities
 Warning:  Energy on first SCF cycle will be non-variational
 SAD guess density has 22.000000 electrons

 -----------------------------------------------------------------------
  General SCF calculation program by
  Eric Jon Sundstrom, Paul Horn, Yuezhi Mao, Dmitri Zuev, Alec White,
  David Stuck, Shaama M.S., Shane Yost, Joonho Lee, David Small,
  Daniel Levine, Susi Lehtola, Hugh Burton, Evgeny Epifanovsky,
  Bang C. Huynh
 -----------------------------------------------------------------------
 Exchange:     0.3696 Hartree-Fock + 1.0000 wM05-D + LR-HF
 Correlation:  1.0000 wM05-D
 Using Euler-Maclaurin-Lebedev (99,590) quadrature formula
 Dispersion:   Grimme D
Running Object-Oriented UKS (UHF)
performing a single roothaan step with Fock from read density so that orbitals are available to all algorithms
 using 8 threads for integral computing
 -------------------------------------------------------
 OpenMP Integral computing Module                
 Release: version 1.0, May 2013, Q-Chem Inc. Pittsburgh 
 -------------------------------------------------------
 using 8 threads for integral computing
 -------------------------------------------------------
 OpenMP Integral computing Module                
 Release: version 1.0, May 2013, Q-Chem Inc. Pittsburgh 
 -------------------------------------------------------
energy of the guess density (C=0) -324.517423332395
 using 8 threads for integral computing
 -------------------------------------------------------
 OpenMP Integral computing Module                
 Release: version 1.0, May 2013, Q-Chem Inc. Pittsburgh 
 -------------------------------------------------------
 using 8 threads for integral computing
 -------------------------------------------------------
 OpenMP Integral computing Module                
 Release: version 1.0, May 2013, Q-Chem Inc. Pittsburgh 
 -------------------------------------------------------
We will preform up to 15 macro iterations over saddle points until a stable solution is found
Energy prior to optimization (guess energy) = -324.568644098592
Begin Timing: Total SCF Calculation
Begin Timing: SCF Single Stationary Point Calculation
begin iterations for algorithm: GDM          
the SCF tolerance is set to 1.00e-08
    1    -324.5686440986      1.12e-02     00000  Normal BFGS step
    2    -324.5698554536      5.02e-03     00000  Normal BFGS step
    3    -324.5700338066      2.12e-03     00000  Normal BFGS step
    4    -324.5700523109      5.13e-04     00000  Normal BFGS step
    5    -324.5700539519      1.63e-04     00000  Normal BFGS step
    6    -324.5700540877      4.56e-05     00000  Normal BFGS step
    7    -324.5700541018      1.90e-05     00000  Normal BFGS step
    8    -324.5700541034      5.23e-06     00000  Normal BFGS step
    9    -324.5700541035      1.19e-06     00000  Normal BFGS step
   10    -324.5700541035      4.24e-07     00000  Normal BFGS step
   11    -324.5700541035      1.03e-07     00000  Normal BFGS step
   12    -324.5700541035      1.63e-08     00000  Normal BFGS step
   13    -324.5700541035      3.05e-09     00000 Convergence criterion met
Timing for Single Stationary Point: 190.00s (wall), 1441.85s (cpu)
Begin Timing: Stability
===================================================
Beginning Test for Internal Stability
===================================================
generating davidson guess vectors based on koopmans excitations
    1      3.59e-01     00000 Davidson Iteration
    2      9.47e-02     00000 Davidson Iteration
    3      5.92e-02     00000 Davidson Iteration
    4      3.66e-03     00000 Davidson Iteration
    5      1.00e-03     00000 Davidson Iteration
    6      2.09e-04     00000 Davidson Iteration
    7      4.42e-05     00000 Davidson Iteration
    8      9.42e-03     00000 Davidson Iteration
    9      7.67e-04     00000 Davidson Iteration
   10      2.02e-04     00000 Davidson Iteration
   11      4.83e-05     00000 Davidson Converged
converged_eigenvalues
   0.0508
   0.1725
Threshold for negative eigenvalues: -1.0e-05
solution was a local minimum (stable)
===================================================
End Test for Internal Stability
===================================================
Timing for Internal Stability: 691.00s (wall), 1858.07s (cpu)
Our SCF solution is stable!
Timing for Total SCF: 881.00s (wall), 3299.94s (cpu)
 Total energy in the final basis set =     -324.5700541035
<S^2> =         -0.000000000
    ==================================================
              The end of Object-Oriented SCFman       
    ==================================================

 --------------------------------------------------------------

                    Orbital Energies (a.u.)
 --------------------------------------------------------------

 Alpha MOs
 -- Occupied --
-38.7637 -38.7637  -2.3375  -2.3374  -1.2678  -1.2668  -1.2668  -1.2666
 -1.2666  -1.2659  -0.1793
 -- Virtual --
 -0.0039   0.0114   0.0121   0.0179   0.0179   0.0250   0.0250   0.0261
  0.0319   0.0337   0.0337   0.0444   0.0527   0.0617   0.0657   0.0657
  0.0776   0.0776   0.0785   0.0785   0.0850   0.0850   0.0883   0.0986
  0.0997   0.0997   0.1205   0.1205   0.1220   0.1239   0.1294   0.1294
  0.1380   0.1380   0.1476   0.1487   0.1503   0.1503   0.1532   0.1532
  0.1537   0.1537   0.1649   0.1649   0.1757   0.1757   0.1876   0.1908
  0.1908   0.1972   0.1972   0.2041   0.2041   0.2071   0.2081   0.2081
  0.2162   0.2162   0.2194   0.2194   0.2305   0.2456   0.2456   0.2503
  0.2520   0.2520   0.2620   0.2797   0.2970   0.2970   0.3402   0.3402
  0.3623   0.3623   0.4171   0.4361   0.4362   0.4379   0.4518   0.4518
  0.4736   0.4746   0.5269   0.5269   0.7059   0.7395   0.7779   0.7779
  0.8022   0.8022   0.8275   0.8318   0.8318   0.8623   0.8623   0.9003
  0.9003   0.9314   0.9314   0.9921   0.9921   1.0430   1.1471   1.1471
  1.2578   1.3847   1.3848   1.4116   1.4116   1.4144   1.4144   1.4227
  1.4763   1.4763   1.4931   1.4932   1.5091   1.5091   1.5127   1.5127
  1.5293   1.5293   1.5319   1.5319   1.5533   1.5533   1.6499   1.6788
  1.6789   1.7174   1.7599   1.9107   1.9107   2.5507   3.0228   4.0782
  4.0782   4.0886   4.0886   4.0916   4.0916   4.1002   4.1002   4.1383
  4.1383   4.1720   4.2876   4.2876   4.3722   5.7916   5.7916   5.7990
  5.7990   5.8072   5.8072   5.8498   5.8498   5.8920   5.9016

 Beta MOs
 -- Occupied --
-38.7637 -38.7637  -2.3375  -2.3374  -1.2678  -1.2668  -1.2668  -1.2666
 -1.2666  -1.2659  -0.1793
 -- Virtual --
 -0.0039   0.0114   0.0121   0.0179   0.0179   0.0250   0.0250   0.0261
  0.0319   0.0337   0.0337   0.0444   0.0527   0.0617   0.0657   0.0657
  0.0776   0.0776   0.0785   0.0785   0.0850   0.0850   0.0883   0.0986
  0.0997   0.0997   0.1205   0.1205   0.1220   0.1239   0.1294   0.1294
  0.1380   0.1380   0.1476   0.1487   0.1503   0.1503   0.1532   0.1532
  0.1537   0.1537   0.1649   0.1649   0.1757   0.1757   0.1876   0.1908
  0.1908   0.1972   0.1972   0.2041   0.2041   0.2071   0.2081   0.2081
  0.2162   0.2162   0.2194   0.2194   0.2305   0.2456   0.2456   0.2503
  0.2520   0.2520   0.2620   0.2797   0.2970   0.2970   0.3402   0.3402
  0.3623   0.3623   0.4171   0.4361   0.4362   0.4379   0.4518   0.4518
  0.4736   0.4746   0.5269   0.5269   0.7059   0.7395   0.7779   0.7779
  0.8022   0.8022   0.8275   0.8318   0.8318   0.8623   0.8623   0.9003
  0.9003   0.9314   0.9314   0.9921   0.9921   1.0430   1.1471   1.1471
  1.2578   1.3847   1.3848   1.4116   1.4116   1.4144   1.4144   1.4227
  1.4763   1.4763   1.4931   1.4932   1.5091   1.5091   1.5127   1.5127
  1.5293   1.5293   1.5319   1.5319   1.5533   1.5533   1.6499   1.6788
  1.6789   1.7174   1.7599   1.9107   1.9107   2.5507   3.0228   4.0782
  4.0782   4.0886   4.0886   4.0916   4.0916   4.1002   4.1002   4.1383
  4.1383   4.1720   4.2876   4.2876   4.3722   5.7916   5.7916   5.7990
  5.7990   5.8072   5.8072   5.8498   5.8498   5.8920   5.9016
 --------------------------------------------------------------

          Ground-State Mulliken Net Atomic Charges

     Atom                 Charge (a.u.)    Spin (a.u.)
  --------------------------------------------------------
      1 Na                   -0.000000       0.000000
      2 Na                    0.000000      -0.000000
  --------------------------------------------------------
  Sum of atomic charges =    -0.000000
  Sum of spin   charges =    -0.000000

 -----------------------------------------------------------------
                    Cartesian Multipole Moments
 -----------------------------------------------------------------
    Charge (ESU x 10^10)
                 0.0000
    Dipole Moment (Debye)
         X      -0.0000      Y      -0.0000      Z       0.0000
       Tot       0.0000
    Quadrupole Moments (Debye-Ang)
        XX     -23.8263     XY      -0.0000     YY     -23.8263
        XZ       0.0000     YZ       0.0000     ZZ      -8.3279
    Octopole Moments (Debye-Ang^2)
       XXX      -0.0000    XXY       0.0000    XYY       0.0000
       YYY       0.0000    XXZ     -36.6794    XYZ       0.0000
       YYZ     -36.6794    XZZ       0.0000    YZZ      -0.0000
       ZZZ     -38.4610
    Hexadecapole Moments (Debye-Ang^3)
      XXXX    -107.8670   XXXY      -0.0000   XXYY     -35.9556
      XYYY      -0.0000   YYYY    -107.8670   XXXZ       0.0000
      XXYZ       0.0000   XYYZ       0.0000   YYYZ       0.0000
      XXZZ    -121.7598   XYZZ      -0.0000   YYZZ    -121.7598
      XZZZ      -0.0000   YZZZ      -0.0000   ZZZZ    -358.1742
 -----------------------------------------------------------------
Archival summary:
1\1\n0099.mhg0\SP\ProcedureUnspecified\BasisUnspecified\a2\yhljason\MonAug2400:51:132020MonAug2400:51:132020\0\\#,ProcedureUnspecified,BasisUnspecified,\\0,1\Na\Na,1,3.0789\\\@

 Total job time:  901.59s(wall), 3450.65s(cpu) 
 Mon Aug 24 00:51:13 2020

        *************************************************************
        *                                                           *
        *  Thank you very much for using Q-Chem.  Have a nice day.  *
        *                                                           *
        *************************************************************


