                  Welcome to Q-Chem
     A Quantum Leap Into The Future Of Chemistry


 Q-Chem 5.3 (devel), Q-Chem, Inc., Pleasanton, CA (2020)

 Yihan Shao,  Zhengting Gan,  E. Epifanovsky,  A. T. B. Gilbert,  M. Wormit,  
 J. Kussmann,  A. W. Lange,  A. Behn,  Jia Deng,  Xintian Feng,  D. Ghosh,  
 M. Goldey,  P. R. Horn,  L. D. Jacobson,  I. Kaliman,  T. Kus,  A. Landau,  
 Jie Liu,  E. I. Proynov,  R. M. Richard,  R. P. Steele,  E. J. Sundstrom,  
 H. L. Woodcock III,  P. M. Zimmerman,  D. Zuev,  B. Alam,  B. Albrecht,  
 E. Alguire,  S. A. Baeppler,  D. Barton,  Z. Benda,  Y. A. Bernard,  
 E. J. Berquist,  K. B. Bravaya,  H. Burton,  K. Carter-Fenk,  D. Casanova,  
 Chun-Min Chang,  Yunqing Chen,  A. Chien,  K. D. Closser,  M. P. Coons,  
 S. Coriani,  S. Dasgupta,  A. L. Dempwolff,  M. Diedenhofen,  Hainam Do,  
 R. G. Edgar,  Po-Tung Fang,  S. Faraji,  S. Fatehi,  Qingguo Feng,  
 J. Fosso-Tande,  J. Gayvert,  Qinghui Ge,  A. Ghysels,  G. Gidofalvi,  
 J. Gomes,  J. Gonthier,  A. Gunina,  D. Hait,  M. W. D. Hanson-Heine,  
 P. H. P. Harbach,  A. W. Hauser,  M. F. Herbst,  J. E. Herr,  
 E. G. Hohenstein,  Z. C. Holden,  Kerwin Hui,  B. C. Huynh,  T.-C. Jagau,  
 Hyunjun Ji,  B. Kaduk,  K. Khistyaev,  Jaehoon Kim,  P. Klunzinger,  K. Koh,  
 D. Kosenkov,  L. Koulias,  T. Kowalczyk,  C. M. Krauter,  A. Kunitsa,  
 Ka Un Lao,  A. Laurent,  K. V. Lawler,  Joonho Lee,  D. Lefrancois,  
 S. Lehtola,  D. S. Levine,  Yi-Pei Li,  You-Sheng Lin,  Fenglai Liu,  
 Kuan-Yu Liu,  E. Livshits,  M. Loipersberger,  A. Luenser,  P. Manohar,  
 E. Mansoor,  S. F. Manzer,  Shan-Ping Mao,  Yuezhi Mao,  N. Mardirossian,  
 A. V. Marenich,  T. Markovich,  L. A. Martinez-Martinez,  S. A. Maurer,  
 N. J. Mayhall,  S. C. McKenzie,  J.-M. Mewes,  P. Morgante,  A. F. Morrison,  
 J. W. Mullinax,  K. Nanda,  T. S. Nguyen-Beck,  R. Olivares-Amaya,  
 K. J. Oosterbaan,  J. A. Parkhill,  S. K. Paul,  F. Pavosevic,  Zheng Pei,  
 T. M. Perrine,  F. Plasser,  P. Pokhilko,  S. Prager,  A. Prociuk,  
 E. Ramos,  B. Rana,  D. R. Rehn,  F. Rob,  M. Scheurer,  M. Schneider,  
 N. Sergueev,  S. M. Sharada,  S. Sharma,  D. W. Small,  T. Stauch,  
 C. J. Stein,  T. Stein,  Yu-Chuan Su,  S. P. Veccham,  Zhen Tao,  
 A. J. W. Thom,  A. Tkatchenko,  T. Tsuchimochi,  N. M. Tubman,  L. Vogt,  
 M. L. Vidal,  O. Vydrov,  M. A. Watson,  J. Wenzel,  M. de Wergifosse,  
 T. A. Wesolowski,  A. White,  J. Witte,  A. Yamada,  Jun Yang,  K. Yao,  
 S. Yeganeh,  S. R. Yost,  Zhi-Qiang You,  A. Zech,  Igor Ying Zhang,  
 Xing Zhang,  Yan Zhao,  Ying Zhu,  B. R. Brooks,  G. K. L. Chan,  
 C. J. Cramer,  M. S. Gordon,  W. J. Hehre,  A. Klamt,  M. W. Schmidt,  
 C. D. Sherrill,  D. G. Truhlar,  A. Aspuru-Guzik,  R. Baer,  A. T. Bell,  
 N. A. Besley,  Jeng-Da Chai,  A. E. DePrince, III,  R. A. DiStasio Jr.,  
 A. Dreuw,  B. D. Dunietz,  T. R. Furlani,  Chao-Ping Hsu,  Yousung Jung,  
 Jing Kong,  D. S. Lambrecht,  WanZhen Liang,  C. Ochsenfeld,  
 V. A. Rassolov,  L. V. Slipchenko,  J. E. Subotnik,  T. Van Voorhis,  
 J. M. Herbert,  A. I. Krylov,  P. M. W. Gill,  M. Head-Gordon

 Contributors to earlier versions of Q-Chem not listed above: 
 R. D. Adamson,  B. Austin,  J. Baker,  G. J. O. Beran,  K. Brandhorst,  
 S. T. Brown,  E. F. C. Byrd,  A. K. Chakraborty,  C.-L. Cheng,  
 Siu Hung Chien,  D. M. Chipman,  D. L. Crittenden,  H. Dachsel,  
 R. J. Doerksen,  A. D. Dutoi,  L. Fusti-Molnar,  W. A. Goddard III,  
 A. Golubeva-Zadorozhnaya,  S. R. Gwaltney,  G. Hawkins,  A. Heyden,  
 S. Hirata,  G. Kedziora,  F. J. Keil,  C. Kelley,  Jihan Kim,  R. A. King,  
 R. Z. Khaliullin,  P. P. Korambath,  W. Kurlancheek,  A. M. Lee,  M. S. Lee,  
 S. V. Levchenko,  Ching Yeh Lin,  D. Liotard,  R. C. Lochan,  I. Lotan,  
 P. E. Maslen,  N. Nair,  D. P. O'Neill,  D. Neuhauser,  E. Neuscamman,  
 C. M. Oana,  R. Olson,  B. Peters,  R. Peverati,  P. A. Pieniazek,  
 Y. M. Rhee,  J. Ritchie,  M. A. Rohrdanz,  E. Rosta,  N. J. Russ,  
 H. F. Schaefer III,  N. E. Schultz,  N. Shenvi,  A. C. Simmonett,  A. Sodt,  
 D. Stuck,  K. S. Thanthiriwatte,  V. Vanovschi,  Tao Wang,  A. Warshel,  
 C. F. Williams,  Q. Wu,  X. Xu,  W. Zhang

 Please cite Q-Chem as follows:
 Y. Shao et al., Mol. Phys. 113, 184-215 (2015)
 DOI: 10.1080/00268976.2014.952696

 Q-Chem 5.3.0 for Intel X86 EM64T Linux

 Parts of Q-Chem use Armadillo 9.800.1 (Horizon Scraper).
 http://arma.sourceforge.net/

 Q-Chem begins on Mon Aug 24 00:51:17 2020  

n0086.mhg0
Host: 0

     Scratch files written to /local/scratch/users/yhljason/Na_wM05-D_aug-pc-4.inp20200823214147//
Processing $rem in /clusterfs/mhg/diptarka/qchem_transmom//config/preferences:
Processing $rem in /global/home/users/yhljason/.qchemrc:

Checking the input file for inconsistencies... 	...done.

--------------------------------------------------------------
User input:
--------------------------------------------------------------
$molecule
0 2
Na
$end

$rem
jobtype sp
method wM05-D
xc_grid 000099000590
basis aug-pc-4
max_scf_cycles 200
thresh 14
scf_convergence 8
scf_algorithm gdm
symmetry false
sym_ignore true
unrestricted true
gen_scfman true
internal_stability_iter 15
internal_stability_davidson_iter 200
mem_total 64000
mem_static 1500
n_frozen_core 0
$end


--------------------------------------------------------------
 ----------------------------------------------------------------
             Standard Nuclear Orientation (Angstroms)
    I     Atom           X                Y                Z
 ----------------------------------------------------------------
    1      Na      0.0000000000     0.0000000000     0.0000000000
 ----------------------------------------------------------------
 Nuclear Repulsion Energy =           0.00000000 hartrees
 There are        6 alpha and        5 beta electrons
 Requested basis set is aug-pc-4
 There are 23 shells and 85 basis functions

 Total QAlloc Memory Limit  64000 MB
 Mega-Array Size      1467 MB
 MEM_STATIC part      1500 MB
 A cutoff of  1.0D-14 yielded    276 shell pairs
 There are      3848 function pairs (      6528 Cartesian)
 Smallest overlap matrix eigenvalue = 1.66E-03

 Scale SEOQF with 1.000000e-02/1.000000e-02/1.000000e-02

 Standard Electronic Orientation quadrupole field applied
 Guess from superposition of atomic densities
 Warning:  Energy on first SCF cycle will be non-variational
 SAD guess density has 11.000000 electrons

 -----------------------------------------------------------------------
  General SCF calculation program by
  Eric Jon Sundstrom, Paul Horn, Yuezhi Mao, Dmitri Zuev, Alec White,
  David Stuck, Shaama M.S., Shane Yost, Joonho Lee, David Small,
  Daniel Levine, Susi Lehtola, Hugh Burton, Evgeny Epifanovsky,
  Bang C. Huynh
 -----------------------------------------------------------------------
 Exchange:     0.3696 Hartree-Fock + 1.0000 wM05-D + LR-HF
 Correlation:  1.0000 wM05-D
 Using Euler-Maclaurin-Lebedev (99,590) quadrature formula
 Dispersion:   Grimme D
Running Object-Oriented UKS (UHF)
performing a single roothaan step with Fock from read density so that orbitals are available to all algorithms
 using 8 threads for integral computing
 -------------------------------------------------------
 OpenMP Integral computing Module                
 Release: version 1.0, May 2013, Q-Chem Inc. Pittsburgh 
 -------------------------------------------------------
 using 8 threads for integral computing
 -------------------------------------------------------
 OpenMP Integral computing Module                
 Release: version 1.0, May 2013, Q-Chem Inc. Pittsburgh 
 -------------------------------------------------------
energy of the guess density (C=0) -162.226354194230
 using 8 threads for integral computing
 -------------------------------------------------------
 OpenMP Integral computing Module                
 Release: version 1.0, May 2013, Q-Chem Inc. Pittsburgh 
 -------------------------------------------------------
 using 8 threads for integral computing
 -------------------------------------------------------
 OpenMP Integral computing Module                
 Release: version 1.0, May 2013, Q-Chem Inc. Pittsburgh 
 -------------------------------------------------------
We will preform up to 15 macro iterations over saddle points until a stable solution is found
Energy prior to optimization (guess energy) = -162.268892139362
Begin Timing: Total SCF Calculation
Begin Timing: SCF Single Stationary Point Calculation
begin iterations for algorithm: GDM          
the SCF tolerance is set to 1.00e-08
    1    -162.2688921394      2.62e-02     00000  Normal BFGS step
    2    -162.2700589172      1.28e-02     00000  Normal BFGS step
    3    -162.2704159893      2.30e-03     00000  Normal BFGS step
    4    -162.2704354072      7.56e-04     00000  Normal BFGS step
    5    -162.2704367269      1.18e-04     00000  Normal BFGS step
    6    -162.2704367535      3.52e-05     00000  Normal BFGS step
    7    -162.2704367567      3.55e-05     00000  Normal BFGS step
    8    -162.2704367541      1.08e-04     00000 Line search: overstep
    9    -162.2704367569      3.26e-05     00000  Normal BFGS step
   10    -162.2704367570      1.39e-05     00000  Normal BFGS step
   11    -162.2704367570      2.69e-06     00000  Normal BFGS step
   12    -162.2704367570      3.84e-07     00000  Normal BFGS step
   13    -162.2704367570      8.54e-09     00000 Convergence criterion met
Timing for Single Stationary Point: 21.00s (wall), 126.65s (cpu)
Begin Timing: Stability
===================================================
Beginning Test for Internal Stability
===================================================
generating davidson guess vectors based on koopmans excitations
    1      1.18e+00     00000 Davidson Iteration
    2      4.74e-01     00000 Davidson Iteration
    3      7.54e-02     00000 Davidson Iteration
    4      7.68e-02     00000 Davidson Iteration
    5      7.59e-02     00000 Davidson Iteration
    6      6.68e-02     00000 Davidson Iteration
    7      5.68e-03     00000 Davidson Iteration
    8      1.21e-03     00000 Davidson Iteration
    9      1.57e-04     00000 Davidson Iteration
   10      1.59e-05     00000 Davidson Iteration
   11      1.16e-03     00000 Davidson Iteration
   12      6.23e-04     00000 Davidson Iteration
   13      9.62e-05     00000 Davidson Converged
converged_eigenvalues
   0.1702
   0.2299
Threshold for negative eigenvalues: -1.0e-05
solution was a local minimum (stable)
===================================================
End Test for Internal Stability
===================================================
Timing for Internal Stability: 68.00s (wall), 213.05s (cpu)
Our SCF solution is stable!
Timing for Total SCF: 89.00s (wall), 339.73s (cpu)
 Total energy in the final basis set =     -162.2704367570
<S^2> =          0.750138207
    ==================================================
              The end of Object-Oriented SCFman       
    ==================================================

 --------------------------------------------------------------

                    Orbital Energies (a.u.)
 --------------------------------------------------------------

 Alpha MOs
 -- Occupied --
-38.7793  -2.3530  -1.2810  -1.2810  -1.2810  -0.1810
 -- Virtual --
  0.0091   0.0157   0.0157   0.0157   0.0362   0.0362   0.0362   0.0506
  0.0784   0.0784   0.0784   0.0784   0.0784   0.1120   0.1120   0.1120
  0.1293   0.1293   0.1293   0.1293   0.1293   0.1293   0.1293   0.1531
  0.1881   0.1881   0.1881   0.1881   0.1881   0.1881   0.1881   0.1881
  0.1881   0.2992   0.2992   0.2992   0.3495   0.3495   0.3495   0.3495
  0.3495   0.3788   0.7435   0.7435   0.7435   0.8681   0.8681   0.8681
  0.8681   0.8681   0.8681   0.8681   1.4135   1.4135   1.4135   1.4135
  1.4135   1.4135   1.4135   1.4135   1.4135   1.4673   1.4673   1.4673
  1.4673   1.4673   2.4635   4.0877   4.0877   4.0877   4.0877   4.0877
  4.0877   4.0877   5.7687   5.7687   5.7687   5.7687   5.7687

 Beta MOs
 -- Occupied --
-38.7777  -2.3505  -1.2812  -1.2812  -1.2812
 -- Virtual --
  0.0174   0.0308   0.0308   0.0308   0.0853   0.1364   0.1364   0.1364
  0.1705   0.1705   0.1705   0.1705   0.1705   0.1789   0.2083   0.2083
  0.2083   0.2083   0.2083   0.2083   0.2083   0.2554   0.2554   0.2554
  0.2554   0.2554   0.2554   0.2554   0.2554   0.2554   0.2582   0.2880
  0.2880   0.2880   0.4261   0.4261   0.4261   0.5369   0.5631   0.5631
  0.5631   0.5631   0.5631   0.8780   0.8780   0.8780   1.0634   1.0634
  1.0634   1.0634   1.0634   1.0634   1.0634   1.5136   1.5136   1.5136
  1.5136   1.5136   1.6337   1.6337   1.6337   1.6337   1.6337   1.6337
  1.6337   1.6337   1.6337   2.5123   4.0906   4.0906   4.0906   4.0906
  4.0906   4.0906   4.0906   5.7743   5.7743   5.7743   5.7743   5.7743
 --------------------------------------------------------------

          Ground-State Mulliken Net Atomic Charges

     Atom                 Charge (a.u.)    Spin (a.u.)
  --------------------------------------------------------
      1 Na                    0.000000       1.000000
  --------------------------------------------------------
  Sum of atomic charges =     0.000000
  Sum of spin   charges =     1.000000

 -----------------------------------------------------------------
                    Cartesian Multipole Moments
 -----------------------------------------------------------------
    Charge (ESU x 10^10)
                -0.0000
    Dipole Moment (Debye)
         X      -0.0000      Y      -0.0000      Z      -0.0000
       Tot       0.0000
    Quadrupole Moments (Debye-Ang)
        XX     -11.7669     XY      -0.0000     YY     -11.7669
        XZ      -0.0000     YZ       0.0000     ZZ     -11.7669
    Octopole Moments (Debye-Ang^2)
       XXX      -0.0000    XXY      -0.0000    XYY      -0.0000
       YYY      -0.0000    XXZ      -0.0000    XYZ      -0.0000
       YYZ      -0.0000    XZZ      -0.0000    YZZ      -0.0000
       ZZZ      -0.0000
    Hexadecapole Moments (Debye-Ang^3)
      XXXX     -52.3632   XXXY       0.0000   XXYY     -17.4544
      XYYY      -0.0000   YYYY     -52.3632   XXXZ      -0.0000
      XXYZ       0.0000   XYYZ      -0.0000   YYYZ       0.0000
      XXZZ     -17.4544   XYZZ      -0.0000   YYZZ     -17.4544
      XZZZ      -0.0000   YZZZ      -0.0000   ZZZZ     -52.3632
 -----------------------------------------------------------------

 STANDARD THERMODYNAMIC QUANTITIES AT   298.15 K  AND     1.00 ATM

   Translational Enthalpy:        0.889 kcal/mol
   Rotational Enthalpy:           0.000 kcal/mol
   Vibrational Enthalpy:          0.000 kcal/mol
   gas constant (RT):             0.592 kcal/mol
   Translational Entropy:        35.336  cal/mol.K
   Rotational Entropy:            0.000  cal/mol.K
   Vibrational Entropy:           0.000  cal/mol.K

   Total Enthalpy:                1.481 kcal/mol
   Total Entropy:                35.336  cal/mol.K

 -----------------------------------------------------------------

Archival summary:
1\1\n0086.mhg0\SP\ProcedureUnspecified\BasisUnspecified\a1(2)\yhljason\MonAug2400:52:492020MonAug2400:52:492020\0\\#,ProcedureUnspecified,BasisUnspecified,\\0,2\Na\\\@

 Total job time:  92.04s(wall), 359.32s(cpu) 
 Mon Aug 24 00:52:49 2020

        *************************************************************
        *                                                           *
        *  Thank you very much for using Q-Chem.  Have a nice day.  *
        *                                                           *
        *************************************************************


