                  Welcome to Q-Chem
     A Quantum Leap Into The Future Of Chemistry


 Q-Chem 5.3 (devel), Q-Chem, Inc., Pleasanton, CA (2020)

 Yihan Shao,  Zhengting Gan,  E. Epifanovsky,  A. T. B. Gilbert,  M. Wormit,  
 J. Kussmann,  A. W. Lange,  A. Behn,  Jia Deng,  Xintian Feng,  D. Ghosh,  
 M. Goldey,  P. R. Horn,  L. D. Jacobson,  I. Kaliman,  T. Kus,  A. Landau,  
 Jie Liu,  E. I. Proynov,  R. M. Richard,  R. P. Steele,  E. J. Sundstrom,  
 H. L. Woodcock III,  P. M. Zimmerman,  D. Zuev,  B. Alam,  B. Albrecht,  
 E. Alguire,  S. A. Baeppler,  D. Barton,  Z. Benda,  Y. A. Bernard,  
 E. J. Berquist,  K. B. Bravaya,  H. Burton,  K. Carter-Fenk,  D. Casanova,  
 Chun-Min Chang,  Yunqing Chen,  A. Chien,  K. D. Closser,  M. P. Coons,  
 S. Coriani,  S. Dasgupta,  A. L. Dempwolff,  M. Diedenhofen,  Hainam Do,  
 R. G. Edgar,  Po-Tung Fang,  S. Faraji,  S. Fatehi,  Qingguo Feng,  
 J. Fosso-Tande,  J. Gayvert,  Qinghui Ge,  A. Ghysels,  G. Gidofalvi,  
 J. Gomes,  J. Gonthier,  A. Gunina,  D. Hait,  M. W. D. Hanson-Heine,  
 P. H. P. Harbach,  A. W. Hauser,  M. F. Herbst,  J. E. Herr,  
 E. G. Hohenstein,  Z. C. Holden,  Kerwin Hui,  B. C. Huynh,  T.-C. Jagau,  
 Hyunjun Ji,  B. Kaduk,  K. Khistyaev,  Jaehoon Kim,  P. Klunzinger,  K. Koh,  
 D. Kosenkov,  L. Koulias,  T. Kowalczyk,  C. M. Krauter,  A. Kunitsa,  
 Ka Un Lao,  A. Laurent,  K. V. Lawler,  Joonho Lee,  D. Lefrancois,  
 S. Lehtola,  D. S. Levine,  Yi-Pei Li,  You-Sheng Lin,  Fenglai Liu,  
 Kuan-Yu Liu,  E. Livshits,  M. Loipersberger,  A. Luenser,  P. Manohar,  
 E. Mansoor,  S. F. Manzer,  Shan-Ping Mao,  Yuezhi Mao,  N. Mardirossian,  
 A. V. Marenich,  T. Markovich,  L. A. Martinez-Martinez,  S. A. Maurer,  
 N. J. Mayhall,  S. C. McKenzie,  J.-M. Mewes,  P. Morgante,  A. F. Morrison,  
 J. W. Mullinax,  K. Nanda,  T. S. Nguyen-Beck,  R. Olivares-Amaya,  
 K. J. Oosterbaan,  J. A. Parkhill,  S. K. Paul,  F. Pavosevic,  Zheng Pei,  
 T. M. Perrine,  F. Plasser,  P. Pokhilko,  S. Prager,  A. Prociuk,  
 E. Ramos,  B. Rana,  D. R. Rehn,  F. Rob,  M. Scheurer,  M. Schneider,  
 N. Sergueev,  S. M. Sharada,  S. Sharma,  D. W. Small,  T. Stauch,  
 C. J. Stein,  T. Stein,  Yu-Chuan Su,  S. P. Veccham,  Zhen Tao,  
 A. J. W. Thom,  A. Tkatchenko,  T. Tsuchimochi,  N. M. Tubman,  L. Vogt,  
 M. L. Vidal,  O. Vydrov,  M. A. Watson,  J. Wenzel,  M. de Wergifosse,  
 T. A. Wesolowski,  A. White,  J. Witte,  A. Yamada,  Jun Yang,  K. Yao,  
 S. Yeganeh,  S. R. Yost,  Zhi-Qiang You,  A. Zech,  Igor Ying Zhang,  
 Xing Zhang,  Yan Zhao,  Ying Zhu,  B. R. Brooks,  G. K. L. Chan,  
 C. J. Cramer,  M. S. Gordon,  W. J. Hehre,  A. Klamt,  M. W. Schmidt,  
 C. D. Sherrill,  D. G. Truhlar,  A. Aspuru-Guzik,  R. Baer,  A. T. Bell,  
 N. A. Besley,  Jeng-Da Chai,  A. E. DePrince, III,  R. A. DiStasio Jr.,  
 A. Dreuw,  B. D. Dunietz,  T. R. Furlani,  Chao-Ping Hsu,  Yousung Jung,  
 Jing Kong,  D. S. Lambrecht,  WanZhen Liang,  C. Ochsenfeld,  
 V. A. Rassolov,  L. V. Slipchenko,  J. E. Subotnik,  T. Van Voorhis,  
 J. M. Herbert,  A. I. Krylov,  P. M. W. Gill,  M. Head-Gordon

 Contributors to earlier versions of Q-Chem not listed above: 
 R. D. Adamson,  B. Austin,  J. Baker,  G. J. O. Beran,  K. Brandhorst,  
 S. T. Brown,  E. F. C. Byrd,  A. K. Chakraborty,  C.-L. Cheng,  
 Siu Hung Chien,  D. M. Chipman,  D. L. Crittenden,  H. Dachsel,  
 R. J. Doerksen,  A. D. Dutoi,  L. Fusti-Molnar,  W. A. Goddard III,  
 A. Golubeva-Zadorozhnaya,  S. R. Gwaltney,  G. Hawkins,  A. Heyden,  
 S. Hirata,  G. Kedziora,  F. J. Keil,  C. Kelley,  Jihan Kim,  R. A. King,  
 R. Z. Khaliullin,  P. P. Korambath,  W. Kurlancheek,  A. M. Lee,  M. S. Lee,  
 S. V. Levchenko,  Ching Yeh Lin,  D. Liotard,  R. C. Lochan,  I. Lotan,  
 P. E. Maslen,  N. Nair,  D. P. O'Neill,  D. Neuhauser,  E. Neuscamman,  
 C. M. Oana,  R. Olson,  B. Peters,  R. Peverati,  P. A. Pieniazek,  
 Y. M. Rhee,  J. Ritchie,  M. A. Rohrdanz,  E. Rosta,  N. J. Russ,  
 H. F. Schaefer III,  N. E. Schultz,  N. Shenvi,  A. C. Simmonett,  A. Sodt,  
 D. Stuck,  K. S. Thanthiriwatte,  V. Vanovschi,  Tao Wang,  A. Warshel,  
 C. F. Williams,  Q. Wu,  X. Xu,  W. Zhang

 Please cite Q-Chem as follows:
 Y. Shao et al., Mol. Phys. 113, 184-215 (2015)
 DOI: 10.1080/00268976.2014.952696

 Q-Chem 5.3.0 for Intel X86 EM64T Linux

 Parts of Q-Chem use Armadillo 9.800.1 (Horizon Scraper).
 http://arma.sourceforge.net/

 Q-Chem begins on Sun Aug 23 23:12:24 2020  

n0099.mhg0
Host: 0

     Scratch files written to /local/scratch/users/yhljason/NH2_N12_aug-pc-4.inp20200823214142//
Processing $rem in /clusterfs/mhg/diptarka/qchem_transmom//config/preferences:
Processing $rem in /global/home/users/yhljason/.qchemrc:

Checking the input file for inconsistencies... 	...done.

--------------------------------------------------------------
User input:
--------------------------------------------------------------
$molecule
0 2
N1	0.0000	0.0000	0.0000
H2	0.0000	0.8036	0.6347
H3	0.0000	-0.8036	0.6347
$end

$rem
jobtype sp
method N12
xc_grid 000099000590
basis aug-pc-4
max_scf_cycles 200
thresh 14
scf_convergence 8
scf_algorithm gdm
symmetry false
sym_ignore true
unrestricted true
gen_scfman true
internal_stability_iter 15
internal_stability_davidson_iter 200
mem_total 64000
mem_static 1500
n_frozen_core 0
$end


--------------------------------------------------------------
 ----------------------------------------------------------------
             Standard Nuclear Orientation (Angstroms)
    I     Atom           X                Y                Z
 ----------------------------------------------------------------
    1      N       0.0000000000     0.0000000000     0.0000000000
    2      H       0.0000000000     0.8036000000     0.6347000000
    3      H       0.0000000000    -0.8036000000     0.6347000000
 ----------------------------------------------------------------
 Nuclear Repulsion Energy =           7.56395718 hartrees
 There are        5 alpha and        4 beta electrons
 Requested basis set is aug-pc-4
 There are 81 shells and 321 basis functions

 Total QAlloc Memory Limit  64000 MB
 Mega-Array Size      1467 MB
 MEM_STATIC part      1500 MB

                       Distance Matrix (Angstroms)
             N (  1)   H (  2)
   H (  2)  1.024020
   H (  3)  1.024020  1.607200

 A cutoff of  1.0D-14 yielded   3311 shell pairs
 There are     52423 function pairs (     93656 Cartesian)
 Smallest overlap matrix eigenvalue = 2.58E-06

 Scale SEOQF with 1.000000e-01/1.000000e-01/1.000000e-01

 Standard Electronic Orientation quadrupole field applied
 Guess from superposition of atomic densities
 Warning:  Energy on first SCF cycle will be non-variational
 SAD guess density has 9.000000 electrons

 -----------------------------------------------------------------------
  General SCF calculation program by
  Eric Jon Sundstrom, Paul Horn, Yuezhi Mao, Dmitri Zuev, Alec White,
  David Stuck, Shaama M.S., Shane Yost, Joonho Lee, David Small,
  Daniel Levine, Susi Lehtola, Hugh Burton, Evgeny Epifanovsky,
  Bang C. Huynh
 -----------------------------------------------------------------------
 Exchange:  N12      Correlation:  N12
 Using Euler-Maclaurin-Lebedev (99,590) quadrature formula
Running Object-Oriented UKS (UHF)
performing a single roothaan step with Fock from read density so that orbitals are available to all algorithms
energy of the guess density (C=0) -55.798339132925
We will preform up to 15 macro iterations over saddle points until a stable solution is found
Energy prior to optimization (guess energy) = -55.833472279486
Begin Timing: Total SCF Calculation
Begin Timing: SCF Single Stationary Point Calculation
begin iterations for algorithm: GDM          
the SCF tolerance is set to 1.00e-08
    1     -55.8334722795      1.03e-01     00000  Descent step
    2     -55.8308418572      1.13e-01     00000 Line search: overstep
    3     -55.8746628906      1.54e-02     00000  Normal BFGS step
    4     -55.8773662271      2.60e-03     00000  Normal BFGS step
    5     -55.8774688494      7.03e-04     00000  Normal BFGS step
    6     -55.8774782641      2.45e-04     00000  Normal BFGS step
    7     -55.8774792813      7.12e-05     00000  Normal BFGS step
    8     -55.8774793434      2.15e-05     00000  Normal BFGS step
    9     -55.8774793498      4.96e-06     00000  Normal BFGS step
   10     -55.8774793501      2.27e-06     00000  Normal BFGS step
   11     -55.8774793501      4.34e-07     00000  Normal BFGS step
   12     -55.8774793501      1.22e-07     00000  Normal BFGS step
   13     -55.8774793501      1.45e-07     00000  Normal BFGS step
   14     -55.8774793501      1.39e-08     00000  Normal BFGS step
   15     -55.8774793501      3.17e-09     00000 Convergence criterion met
Timing for Single Stationary Point: 746.00s (wall), 5817.81s (cpu)
Begin Timing: Stability
===================================================
Beginning Test for Internal Stability
===================================================
generating davidson guess vectors based on koopmans excitations
 Warning: Hessian-vector products not implemented
 Finite difference Hessian-vector products will be used.
computing hessian-vector products by finite difference
    1      5.11e-01     00000 Davidson Iteration
computing hessian-vector products by finite difference
    2      1.79e-01     00000 Davidson Iteration
computing hessian-vector products by finite difference
    3      3.46e-02     00000 Davidson Iteration
computing hessian-vector products by finite difference
    4      6.73e-03     00000 Davidson Iteration
computing hessian-vector products by finite difference
    5      1.62e-03     00000 Davidson Iteration
computing hessian-vector products by finite difference
    6      4.33e-04     00000 Davidson Iteration
computing hessian-vector products by finite difference
    7      7.29e-05     00000 Davidson Iteration
computing hessian-vector products by finite difference
    8      5.07e-03     00000 Davidson Iteration
computing hessian-vector products by finite difference
    9      1.08e-03     00000 Davidson Iteration
computing hessian-vector products by finite difference
   10      2.55e-04     00000 Davidson Iteration
computing hessian-vector products by finite difference
   11      6.07e-05     00000 Davidson Converged
converged_eigenvalues
   0.1492
   0.3489
Threshold for negative eigenvalues: -1.0e-05
solution was a local minimum (stable)
===================================================
End Test for Internal Stability
===================================================
Timing for Internal Stability: 2708.00s (wall), 21058.83s (cpu)
Our SCF solution is stable!
Timing for Total SCF: 3454.00s (wall), 26876.71s (cpu)
 Total energy in the final basis set =      -55.8774793501
<S^2> =          0.755196206
    ==================================================
              The end of Object-Oriented SCFman       
    ==================================================

 --------------------------------------------------------------

                    Orbital Energies (a.u.)
 --------------------------------------------------------------

 Alpha MOs
 -- Occupied --
-14.0518  -0.7783  -0.4304  -0.2870  -0.2722
 -- Virtual --
 -0.0466  -0.0081   0.0024   0.0044   0.0318   0.0325   0.0492   0.0502
  0.0583   0.0589   0.0597   0.1001   0.1069   0.1122   0.1179   0.1348
  0.1458   0.1463   0.1516   0.1543   0.1593   0.1622   0.1780   0.1810
  0.1965   0.2048   0.2063   0.2089   0.2141   0.2261   0.2537   0.2611
  0.2857   0.2906   0.2941   0.2987   0.3191   0.3207   0.3220   0.3324
  0.3672   0.3732   0.3734   0.3743   0.3857   0.3903   0.4049   0.4053
  0.4060   0.4144   0.4267   0.4388   0.4437   0.4650   0.4742   0.4780
  0.4913   0.5003   0.5116   0.5135   0.5148   0.5185   0.5217   0.5343
  0.5380   0.5640   0.5772   0.5870   0.6416   0.6513   0.6540   0.6602
  0.6643   0.6675   0.6715   0.6851   0.6892   0.6987   0.6996   0.7115
  0.7177   0.7510   0.7533   0.7614   0.7820   0.7821   0.7860   0.7919
  0.7962   0.8066   0.8184   0.8319   0.8383   0.8679   0.8695   0.8726
  0.8868   0.8899   0.9113   0.9179   0.9242   0.9348   0.9751   0.9806
  0.9815   0.9858   1.0055   1.0227   1.0306   1.0436   1.1595   1.1623
  1.2021   1.2875   1.3513   1.3677   1.3987   1.4479   1.4845   1.4878
  1.5261   1.5467   1.5817   1.6086   1.6208   1.6277   1.6604   1.6659
  1.7630   1.8210   1.8485   1.8568   1.8601   1.9963   2.0539   2.1568
  2.3356   2.3437   2.4084   2.4113   2.4519   2.5914   2.6308   2.6757
  2.7602   2.8728   2.9044   2.9154   3.0416   3.0914   3.1178   3.2660
  3.3162   3.3291   3.3923   3.4310   3.4625   3.4792   3.5205   3.5380
  3.6029   3.6699   3.7229   3.7643   3.7843   3.8315   3.9337   4.0062
  4.0409   4.0843   4.1633   4.2487   4.3037   4.3747   4.4057   4.5309
  4.8574   4.9091   4.9762   4.9928   5.0183   5.1813   5.1819   5.4969
  5.5602   5.6131   5.6797   5.7257   5.7870   5.9325   6.1322   6.1770
  6.1897   6.2264   6.2915   6.3125   6.5063   6.5290   6.5555   6.8707
  7.2150   7.3771   7.4440   7.5385   7.7969   8.0114   8.3364   8.3477
  8.3534   8.4182   8.6118   8.7510   8.8600   8.9633   9.0081   9.0894
  9.3842   9.4223   9.6267   9.6366   9.8161   9.9170   9.9915  10.0610
 11.2256  11.2724  11.2864  11.3008  11.3136  11.3150  11.4449  11.4722
 11.4836  11.5042  11.6067  11.6413  11.7382  11.7716  12.2242  12.3798
 12.4109  12.5166  12.5260  12.6479  12.6565  12.7780  12.7943  12.8928
 13.3976  13.4200  13.9055  13.9871  14.1236  14.1286  14.7515  14.8865
 14.9679  15.0629  15.1725  15.2574  15.2960  15.3737  15.6213  15.8669
 16.0297  16.1811  16.3576  16.6119  16.7364  16.7633  16.7818  16.8984
 17.0125  17.0182  17.1354  17.1591  17.2339  17.5068  17.6345  17.7243
 17.7486  18.2721  18.8122  19.0292  19.4624  19.4847  20.4912  20.5285
 20.6656  20.8472  20.9766  21.9383  23.3847  23.4282  23.5787  23.5808
 24.0645  25.4720  25.7928  25.9864  27.7583  28.3692  41.1080  41.1975
 47.7797  47.8904  47.9710  48.2923  49.1398  90.8671  90.9100  90.9735
 90.9859  92.6735  92.7654 105.3791

 Beta MOs
 -- Occupied --
-14.0307  -0.7297  -0.4100  -0.2572
 -- Virtual --
 -0.1466  -0.0494  -0.0200  -0.0083   0.0044   0.0213   0.0355   0.0394
  0.0436   0.0506   0.0515   0.0524   0.1000   0.1095   0.1106   0.1200
  0.1357   0.1363   0.1390   0.1411   0.1493   0.1528   0.1547   0.1566
  0.1842   0.1973   0.2028   0.2109   0.2216   0.2240   0.2299   0.2556
  0.2629   0.2630   0.2663   0.2742   0.2789   0.3037   0.3074   0.3284
  0.3414   0.3633   0.3678   0.3719   0.3764   0.3787   0.3868   0.4000
  0.4036   0.4119   0.4120   0.4375   0.4539   0.4608   0.4666   0.4771
  0.4846   0.4846   0.5039   0.5075   0.5086   0.5147   0.5168   0.5193
  0.5316   0.5416   0.5635   0.5738   0.6322   0.6328   0.6372   0.6464
  0.6525   0.6591   0.6658   0.6667   0.6848   0.6893   0.7097   0.7226
  0.7248   0.7474   0.7662   0.7713   0.7806   0.7832   0.7906   0.7996
  0.8022   0.8063   0.8212   0.8267   0.8443   0.8621   0.8699   0.8955
  0.9001   0.9124   0.9326   0.9347   0.9371   0.9482   0.9490   0.9721
  0.9753   1.0058   1.0115   1.0301   1.0434   1.0538   1.0965   1.1845
  1.2055   1.2117   1.3548   1.3778   1.3978   1.4035   1.4869   1.4972
  1.5027   1.5452   1.5770   1.5964   1.6112   1.6209   1.6427   1.6723
  1.6794   1.7698   1.8347   1.8482   1.8708   1.8734   2.0089   2.0745
  2.1678   2.3435   2.3441   2.4127   2.4198   2.4625   2.5950   2.6381
  2.6799   2.7902   2.8876   2.9389   2.9568   3.0481   3.1226   3.1234
  3.3089   3.3266   3.3269   3.4304   3.4731   3.4750   3.4912   3.5241
  3.5457   3.6080   3.6946   3.7596   3.7626   3.7957   3.8360   4.0127
  4.0372   4.0659   4.1058   4.1686   4.2581   4.3329   4.3916   4.4409
  4.5418   4.8636   4.9553   5.0086   5.0403   5.0623   5.2022   5.2100
  5.5199   5.5757   5.6405   5.7153   5.7694   5.8159   5.9590   6.1821
  6.1864   6.2226   6.3103   6.3385   6.3658   6.5410   6.5600   6.6004
  6.8880   7.2214   7.4559   7.5268   7.6058   7.8235   8.0354   8.3524
  8.3531   8.3544   8.4706   8.6050   8.7512   8.8626   8.9619   9.0866
  9.2089   9.4042   9.4368   9.6707   9.6753   9.8356   9.9747  10.0375
 10.0785  11.2501  11.3318  11.3490  11.3493  11.3927  11.4008  11.4897
 11.5522  11.5552  11.5653  11.6736  11.7186  11.7431  11.7694  12.2409
 12.3854  12.4083  12.5261  12.5341  12.6758  12.7144  12.7853  12.8589
 12.9115  13.4124  13.4459  13.9279  14.0021  14.1575  14.1712  14.8535
 14.9925  15.0575  15.1564  15.2530  15.3361  15.3589  15.4249  15.6437
 15.8710  16.0774  16.2263  16.4607  16.6384  16.7346  16.7622  16.7803
 16.9031  17.0673  17.1751  17.2009  17.2782  17.3450  17.5135  17.6634
 17.7300  17.8363  18.3009  18.8149  19.0363  19.4651  19.4921  20.5221
 20.5523  20.7360  20.8451  20.9814  21.9560  23.3750  23.4190  23.5667
 23.5673  24.1677  25.4635  25.7960  26.0109  27.7680  28.3789  41.0989
 41.1878  47.8500  47.9620  48.0374  48.3321  49.1628  90.8512  90.8942
 90.9587  90.9711  92.6598  92.7519 105.3724
 --------------------------------------------------------------

          Ground-State Mulliken Net Atomic Charges

     Atom                 Charge (a.u.)    Spin (a.u.)
  --------------------------------------------------------
      1 N                    -0.066453       1.278614
      2 H                     0.033226      -0.139307
      3 H                     0.033226      -0.139307
  --------------------------------------------------------
  Sum of atomic charges =    -0.000000
  Sum of spin   charges =     1.000000

 -----------------------------------------------------------------
                    Cartesian Multipole Moments
 -----------------------------------------------------------------
    Charge (ESU x 10^10)
                -0.0000
    Dipole Moment (Debye)
         X       0.0000      Y       0.0000      Z       1.7505
       Tot       1.7505
    Quadrupole Moments (Debye-Ang)
        XX      -7.2799     XY      -0.0000     YY      -5.6180
        XZ       0.0000     YZ       0.0000     ZZ      -7.2840
    Octopole Moments (Debye-Ang^2)
       XXX       0.0000    XXY      -0.0000    XYY       0.0000
       YYY      -0.0000    XXZ      -0.6546    XYZ       0.0000
       YYZ       0.4614    XZZ       0.0000    YZZ      -0.0000
       ZZZ      -1.6988
    Hexadecapole Moments (Debye-Ang^3)
      XXXX      -7.8484   XXXY      -0.0000   XXYY      -3.2715
      XYYY      -0.0000   YYYY     -10.2086   XXXZ       0.0000
      XXYZ      -0.0000   XYYZ       0.0000   YYYZ      -0.0000
      XXZZ      -3.4487   XYZZ       0.0000   YYZZ      -3.3013
      XZZZ       0.0000   YZZZ      -0.0000   ZZZZ     -12.6704
 -----------------------------------------------------------------
Archival summary:
1\1\n0099.mhg0\SP\ProcedureUnspecified\BasisUnspecified\12(2)\yhljason\MonAug2400:11:372020MonAug2400:11:372020\0\\#,ProcedureUnspecified,BasisUnspecified,\\0,2\N\H,1,1.02402\H,1,1.02402,2,103.395\\\@

 Total job time:  3552.32s(wall), 27641.93s(cpu) 
 Mon Aug 24 00:11:37 2020

        *************************************************************
        *                                                           *
        *  Thank you very much for using Q-Chem.  Have a nice day.  *
        *                                                           *
        *************************************************************


