                  Welcome to Q-Chem
     A Quantum Leap Into The Future Of Chemistry


 Q-Chem 5.3 (devel), Q-Chem, Inc., Pleasanton, CA (2020)

 Yihan Shao,  Zhengting Gan,  E. Epifanovsky,  A. T. B. Gilbert,  M. Wormit,  
 J. Kussmann,  A. W. Lange,  A. Behn,  Jia Deng,  Xintian Feng,  D. Ghosh,  
 M. Goldey,  P. R. Horn,  L. D. Jacobson,  I. Kaliman,  T. Kus,  A. Landau,  
 Jie Liu,  E. I. Proynov,  R. M. Richard,  R. P. Steele,  E. J. Sundstrom,  
 H. L. Woodcock III,  P. M. Zimmerman,  D. Zuev,  B. Alam,  B. Albrecht,  
 E. Alguire,  S. A. Baeppler,  D. Barton,  Z. Benda,  Y. A. Bernard,  
 E. J. Berquist,  K. B. Bravaya,  H. Burton,  K. Carter-Fenk,  D. Casanova,  
 Chun-Min Chang,  Yunqing Chen,  A. Chien,  K. D. Closser,  M. P. Coons,  
 S. Coriani,  S. Dasgupta,  A. L. Dempwolff,  M. Diedenhofen,  Hainam Do,  
 R. G. Edgar,  Po-Tung Fang,  S. Faraji,  S. Fatehi,  Qingguo Feng,  
 J. Fosso-Tande,  J. Gayvert,  Qinghui Ge,  A. Ghysels,  G. Gidofalvi,  
 J. Gomes,  J. Gonthier,  A. Gunina,  D. Hait,  M. W. D. Hanson-Heine,  
 P. H. P. Harbach,  A. W. Hauser,  M. F. Herbst,  J. E. Herr,  
 E. G. Hohenstein,  Z. C. Holden,  Kerwin Hui,  B. C. Huynh,  T.-C. Jagau,  
 Hyunjun Ji,  B. Kaduk,  K. Khistyaev,  Jaehoon Kim,  P. Klunzinger,  K. Koh,  
 D. Kosenkov,  L. Koulias,  T. Kowalczyk,  C. M. Krauter,  A. Kunitsa,  
 Ka Un Lao,  A. Laurent,  K. V. Lawler,  Joonho Lee,  D. Lefrancois,  
 S. Lehtola,  D. S. Levine,  Yi-Pei Li,  You-Sheng Lin,  Fenglai Liu,  
 Kuan-Yu Liu,  E. Livshits,  M. Loipersberger,  A. Luenser,  P. Manohar,  
 E. Mansoor,  S. F. Manzer,  Shan-Ping Mao,  Yuezhi Mao,  N. Mardirossian,  
 A. V. Marenich,  T. Markovich,  L. A. Martinez-Martinez,  S. A. Maurer,  
 N. J. Mayhall,  S. C. McKenzie,  J.-M. Mewes,  P. Morgante,  A. F. Morrison,  
 J. W. Mullinax,  K. Nanda,  T. S. Nguyen-Beck,  R. Olivares-Amaya,  
 K. J. Oosterbaan,  J. A. Parkhill,  S. K. Paul,  F. Pavosevic,  Zheng Pei,  
 T. M. Perrine,  F. Plasser,  P. Pokhilko,  S. Prager,  A. Prociuk,  
 E. Ramos,  B. Rana,  D. R. Rehn,  F. Rob,  M. Scheurer,  M. Schneider,  
 N. Sergueev,  S. M. Sharada,  S. Sharma,  D. W. Small,  T. Stauch,  
 C. J. Stein,  T. Stein,  Yu-Chuan Su,  S. P. Veccham,  Zhen Tao,  
 A. J. W. Thom,  A. Tkatchenko,  T. Tsuchimochi,  N. M. Tubman,  L. Vogt,  
 M. L. Vidal,  O. Vydrov,  M. A. Watson,  J. Wenzel,  M. de Wergifosse,  
 T. A. Wesolowski,  A. White,  J. Witte,  A. Yamada,  Jun Yang,  K. Yao,  
 S. Yeganeh,  S. R. Yost,  Zhi-Qiang You,  A. Zech,  Igor Ying Zhang,  
 Xing Zhang,  Yan Zhao,  Ying Zhu,  B. R. Brooks,  G. K. L. Chan,  
 C. J. Cramer,  M. S. Gordon,  W. J. Hehre,  A. Klamt,  M. W. Schmidt,  
 C. D. Sherrill,  D. G. Truhlar,  A. Aspuru-Guzik,  R. Baer,  A. T. Bell,  
 N. A. Besley,  Jeng-Da Chai,  A. E. DePrince, III,  R. A. DiStasio Jr.,  
 A. Dreuw,  B. D. Dunietz,  T. R. Furlani,  Chao-Ping Hsu,  Yousung Jung,  
 Jing Kong,  D. S. Lambrecht,  WanZhen Liang,  C. Ochsenfeld,  
 V. A. Rassolov,  L. V. Slipchenko,  J. E. Subotnik,  T. Van Voorhis,  
 J. M. Herbert,  A. I. Krylov,  P. M. W. Gill,  M. Head-Gordon

 Contributors to earlier versions of Q-Chem not listed above: 
 R. D. Adamson,  B. Austin,  J. Baker,  G. J. O. Beran,  K. Brandhorst,  
 S. T. Brown,  E. F. C. Byrd,  A. K. Chakraborty,  C.-L. Cheng,  
 Siu Hung Chien,  D. M. Chipman,  D. L. Crittenden,  H. Dachsel,  
 R. J. Doerksen,  A. D. Dutoi,  L. Fusti-Molnar,  W. A. Goddard III,  
 A. Golubeva-Zadorozhnaya,  S. R. Gwaltney,  G. Hawkins,  A. Heyden,  
 S. Hirata,  G. Kedziora,  F. J. Keil,  C. Kelley,  Jihan Kim,  R. A. King,  
 R. Z. Khaliullin,  P. P. Korambath,  W. Kurlancheek,  A. M. Lee,  M. S. Lee,  
 S. V. Levchenko,  Ching Yeh Lin,  D. Liotard,  R. C. Lochan,  I. Lotan,  
 P. E. Maslen,  N. Nair,  D. P. O'Neill,  D. Neuhauser,  E. Neuscamman,  
 C. M. Oana,  R. Olson,  B. Peters,  R. Peverati,  P. A. Pieniazek,  
 Y. M. Rhee,  J. Ritchie,  M. A. Rohrdanz,  E. Rosta,  N. J. Russ,  
 H. F. Schaefer III,  N. E. Schultz,  N. Shenvi,  A. C. Simmonett,  A. Sodt,  
 D. Stuck,  K. S. Thanthiriwatte,  V. Vanovschi,  Tao Wang,  A. Warshel,  
 C. F. Williams,  Q. Wu,  X. Xu,  W. Zhang

 Please cite Q-Chem as follows:
 Y. Shao et al., Mol. Phys. 113, 184-215 (2015)
 DOI: 10.1080/00268976.2014.952696

 Q-Chem 5.3.0 for Intel X86 EM64T Linux

 Parts of Q-Chem use Armadillo 9.800.1 (Horizon Scraper).
 http://arma.sourceforge.net/

 Q-Chem begins on Sun Aug 23 23:49:08 2020  

n0052.mhg0
Host: 0

     Scratch files written to /local/scratch/users/yhljason/NH3_M06_aug-pc-4.inp20200823214143//
Processing $rem in /clusterfs/mhg/diptarka/qchem_transmom//config/preferences:
Processing $rem in /global/home/users/yhljason/.qchemrc:

Checking the input file for inconsistencies... 	...done.

--------------------------------------------------------------
User input:
--------------------------------------------------------------
$molecule
0 1
N1      0.0000  0.0000  0.0000
H2      0.0000  -0.9377 -0.3816
H3      0.8121  0.4689  -0.3816
H4      -0.8121 0.4689  -0.3816
$end

$rem
jobtype sp
method M06
xc_grid 000099000590
basis aug-pc-4
max_scf_cycles 200
thresh 14
scf_convergence 8
scf_algorithm gdm
symmetry false
sym_ignore true
unrestricted true
gen_scfman true
internal_stability_iter 15
internal_stability_davidson_iter 200
mem_total 64000
mem_static 1500
n_frozen_core 0
$end


--------------------------------------------------------------
 ----------------------------------------------------------------
             Standard Nuclear Orientation (Angstroms)
    I     Atom           X                Y                Z
 ----------------------------------------------------------------
    1      N       0.0000000000     0.0000000000     0.0000000000
    2      H       0.0000000000    -0.9377000000    -0.3816000000
    3      H       0.8121000000     0.4689000000    -0.3816000000
    4      H      -0.8121000000     0.4689000000    -0.3816000000
 ----------------------------------------------------------------
 Nuclear Repulsion Energy =          11.95399373 hartrees
 There are        5 alpha and        5 beta electrons
 Requested basis set is aug-pc-4
 There are 105 shells and 409 basis functions

 Total QAlloc Memory Limit  64000 MB
 Mega-Array Size      1467 MB
 MEM_STATIC part      1500 MB

                       Distance Matrix (Angstroms)
             N (  1)   H (  2)   H (  3)
   H (  2)  1.012373
   H (  3)  1.012419  1.624201
   H (  4)  1.012419  1.624201  1.624200

 A cutoff of  1.0D-14 yielded   5538 shell pairs
 There are     84700 function pairs (    148804 Cartesian)
 Smallest overlap matrix eigenvalue = 1.49E-06

 Scale SEOQF with 1.000000e-01/1.000000e-01/1.000000e-01

 Standard Electronic Orientation quadrupole field applied
 Guess from superposition of atomic densities
 Warning:  Energy on first SCF cycle will be non-variational
 SAD guess density has 10.000000 electrons

 -----------------------------------------------------------------------
  General SCF calculation program by
  Eric Jon Sundstrom, Paul Horn, Yuezhi Mao, Dmitri Zuev, Alec White,
  David Stuck, Shaama M.S., Shane Yost, Joonho Lee, David Small,
  Daniel Levine, Susi Lehtola, Hugh Burton, Evgeny Epifanovsky,
  Bang C. Huynh
 -----------------------------------------------------------------------
 Exchange:     0.2700 Hartree-Fock + 1.0000 M06
 Correlation:  1.0000 M06
 Using Euler-Maclaurin-Lebedev (99,590) quadrature formula
Running Object-Oriented UKS (UHF)
performing a single roothaan step with Fock from read density so that orbitals are available to all algorithms
energy of the guess density (C=0) -56.522249929168
We will preform up to 15 macro iterations over saddle points until a stable solution is found
Energy prior to optimization (guess energy) = -56.478538162523
Begin Timing: Total SCF Calculation
Begin Timing: SCF Single Stationary Point Calculation
begin iterations for algorithm: GDM          
the SCF tolerance is set to 1.00e-08
    1     -56.4785381625      9.51e-02     00000  Descent step
    2     -56.5331360894      7.03e-02     00000  Normal BFGS step
    3     -56.5520750732      1.13e-02     00000  Normal BFGS step
    4     -56.5524911921      1.80e-03     00000  Normal BFGS step
    5     -56.5525075102      5.48e-04     00000  Normal BFGS step
    6     -56.5525097268      1.17e-04     00000  Normal BFGS step
    7     -56.5525098395      3.16e-05     00000  Normal BFGS step
    8     -56.5525098438      3.21e-06     00000  Normal BFGS step
    9     -56.5525098439      9.27e-07     00000  Normal BFGS step
   10     -56.5525098439      1.23e-07     00000  Normal BFGS step
   11     -56.5525098439      1.98e-08     00000  Normal BFGS step
   12     -56.5525098439      7.59e-09     00000 Convergence criterion met
Timing for Single Stationary Point: 1615.00s (wall), 12681.88s (cpu)
Begin Timing: Stability
===================================================
Beginning Test for Internal Stability
===================================================
generating davidson guess vectors based on koopmans excitations
 Warning: Hessian-vector products not implemented
 Finite difference Hessian-vector products will be used.
computing hessian-vector products by finite difference
    1      4.51e-01     00000 Davidson Iteration
computing hessian-vector products by finite difference
    2      1.28e-01     00000 Davidson Iteration
computing hessian-vector products by finite difference
    3      4.30e-02     00000 Davidson Iteration
computing hessian-vector products by finite difference
    4      2.86e-02     00000 Davidson Iteration
computing hessian-vector products by finite difference
    5      6.85e-03     00000 Davidson Iteration
computing hessian-vector products by finite difference
    6      1.50e-03     00000 Davidson Iteration
computing hessian-vector products by finite difference
    7      5.68e-04     00000 Davidson Iteration
computing hessian-vector products by finite difference
    8      3.13e-04     00000 Davidson Iteration
computing hessian-vector products by finite difference
    9      2.39e-04     00000 Davidson Iteration
computing hessian-vector products by finite difference
   10      9.82e-05     00000 Davidson Iteration
computing hessian-vector products by finite difference
   11      6.12e-04     00000 Davidson Iteration
computing hessian-vector products by finite difference
   12      5.94e-04     00000 Davidson Iteration
computing hessian-vector products by finite difference
   13      7.53e-04     00000 Davidson Iteration
computing hessian-vector products by finite difference
   14      5.21e-04     00000 Davidson Iteration
computing hessian-vector products by finite difference
   15      5.57e-04     00000 Davidson Iteration
computing hessian-vector products by finite difference
   16      2.10e-03     00000 Davidson Iteration
computing hessian-vector products by finite difference
   17      1.94e-03     00000 Davidson Iteration
computing hessian-vector products by finite difference
   18      1.84e-03     00000 Davidson Iteration
computing hessian-vector products by finite difference
   19      1.82e-03     00000 Davidson Iteration
computing hessian-vector products by finite difference
   20      1.83e-03     00000 Davidson Iteration
computing hessian-vector products by finite difference
   21      1.76e-03     00000 Davidson Iteration
computing hessian-vector products by finite difference
   22      1.64e-03     00000 Davidson Iteration
computing hessian-vector products by finite difference
   23      5.41e-04     00000 Davidson Iteration
computing hessian-vector products by finite difference
   24      3.51e-04     00000 Davidson Iteration
computing hessian-vector products by finite difference
   25      3.66e-04     00000 Davidson Iteration
computing hessian-vector products by finite difference
   26      7.85e-04     00000 Davidson Iteration
computing hessian-vector products by finite difference
   27      1.58e-03     00000 Davidson Iteration
computing hessian-vector products by finite difference
   28      1.55e-03     00000 Davidson Iteration
computing hessian-vector products by finite difference
   29      1.62e-03     00000 Davidson Iteration
computing hessian-vector products by finite difference
   30      1.31e-03     00000 Davidson Iteration
computing hessian-vector products by finite difference
   31      5.40e-04     00000 Davidson Iteration
computing hessian-vector products by finite difference
   32      5.01e-04     00000 Davidson Iteration
computing hessian-vector products by finite difference
   33      4.15e-04     00000 Davidson Iteration
computing hessian-vector products by finite difference
   34      2.94e-04     00000 Davidson Iteration
computing hessian-vector products by finite difference
   35      2.04e-04     00000 Davidson Iteration
computing hessian-vector products by finite difference
   36      2.09e-04     00000 Davidson Iteration
computing hessian-vector products by finite difference
   37      2.10e-04     00000 Davidson Iteration
computing hessian-vector products by finite difference
   38      2.11e-04     00000 Davidson Iteration
computing hessian-vector products by finite difference
   39      2.40e-04     00000 Davidson Iteration
computing hessian-vector products by finite difference
   40      2.27e-04     00000 Davidson Iteration
computing hessian-vector products by finite difference
   41      2.50e-04     00000 Davidson Iteration
computing hessian-vector products by finite difference
   42      2.84e-04     00000 Davidson Iteration
computing hessian-vector products by finite difference
   43      2.85e-04     00000 Davidson Iteration
computing hessian-vector products by finite difference
   44      2.97e-04     00000 Davidson Iteration
computing hessian-vector products by finite difference
   45      2.89e-04     00000 Davidson Iteration
computing hessian-vector products by finite difference
   46      3.01e-04     00000 Davidson Iteration
computing hessian-vector products by finite difference
   47      3.03e-04     00000 Davidson Iteration
computing hessian-vector products by finite difference
   48      3.02e-04     00000 Davidson Iteration
computing hessian-vector products by finite difference
   49      3.14e-04     00000 Davidson Iteration
computing hessian-vector products by finite difference
   50      3.13e-04     00000 Davidson Iteration
computing hessian-vector products by finite difference
   51      3.16e-04     00000 Davidson Iteration
computing hessian-vector products by finite difference
   52      3.17e-04     00000 Davidson Iteration
computing hessian-vector products by finite difference
   53      3.26e-04     00000 Davidson Iteration
computing hessian-vector products by finite difference
   54      3.30e-04     00000 Davidson Iteration
computing hessian-vector products by finite difference
   55      3.37e-04     00000 Davidson Iteration
computing hessian-vector products by finite difference
   56      3.19e-04     00000 Davidson Iteration
computing hessian-vector products by finite difference
   57      3.35e-04     00000 Davidson Iteration
computing hessian-vector products by finite difference
   58      3.33e-04     00000 Davidson Iteration
computing hessian-vector products by finite difference
   59      3.34e-04     00000 Davidson Iteration
computing hessian-vector products by finite difference
   60      3.55e-04     00000 Davidson Iteration
computing hessian-vector products by finite difference
   61      3.60e-04     00000 Davidson Iteration
computing hessian-vector products by finite difference
   62      3.60e-04     00000 Davidson Iteration
computing hessian-vector products by finite difference
   63      3.72e-04     00000 Davidson Iteration
computing hessian-vector products by finite difference
   64      3.79e-04     00000 Davidson Iteration
computing hessian-vector products by finite difference
   65      3.55e-04     00000 Davidson Iteration
computing hessian-vector products by finite difference
   66      3.64e-04     00000 Davidson Iteration
computing hessian-vector products by finite difference
   67      3.61e-04     00000 Davidson Iteration
computing hessian-vector products by finite difference
   68      3.63e-04     00000 Davidson Iteration
computing hessian-vector products by finite difference
   69      3.61e-04     00000 Davidson Iteration
computing hessian-vector products by finite difference
   70      3.64e-04     00000 Davidson Iteration
computing hessian-vector products by finite difference
   71      3.60e-04     00000 Davidson Iteration
computing hessian-vector products by finite difference
   72      3.63e-04     00000 Davidson Iteration
computing hessian-vector products by finite difference
   73      3.70e-04     00000 Davidson Iteration
computing hessian-vector products by finite difference
   74      3.67e-04     00000 Davidson Iteration
computing hessian-vector products by finite difference
   75      3.65e-04     00000 Davidson Iteration
computing hessian-vector products by finite difference
   76      3.71e-04     00000 Davidson Iteration
computing hessian-vector products by finite difference
   77      3.67e-04     00000 Davidson Iteration
computing hessian-vector products by finite difference
   78      3.67e-04     00000 Davidson Iteration
computing hessian-vector products by finite difference
   79      3.73e-04     00000 Davidson Iteration
computing hessian-vector products by finite difference
   80      3.66e-04     00000 Davidson Iteration
computing hessian-vector products by finite difference
   81      3.63e-04     00000 Davidson Iteration
computing hessian-vector products by finite difference
   82      3.64e-04     00000 Davidson Iteration
computing hessian-vector products by finite difference
   83      3.64e-04     00000 Davidson Iteration
computing hessian-vector products by finite difference
   84      3.62e-04     00000 Davidson Iteration
computing hessian-vector products by finite difference
   85      3.65e-04     00000 Davidson Iteration
computing hessian-vector products by finite difference
   86      3.62e-04     00000 Davidson Iteration
computing hessian-vector products by finite difference
   87      3.62e-04     00000 Davidson Iteration
computing hessian-vector products by finite difference
   88      3.57e-04     00000 Davidson Iteration
computing hessian-vector products by finite difference
   89      3.61e-04     00000 Davidson Iteration
computing hessian-vector products by finite difference
   90      3.49e-04     00000 Davidson Iteration
computing hessian-vector products by finite difference
   91      3.52e-04     00000 Davidson Iteration
computing hessian-vector products by finite difference
   92      3.52e-04     00000 Davidson Iteration
computing hessian-vector products by finite difference
   93      3.52e-04     00000 Davidson Iteration
computing hessian-vector products by finite difference
   94      3.51e-04     00000 Davidson Iteration
computing hessian-vector products by finite difference
   95      3.51e-04     00000 Davidson Iteration
computing hessian-vector products by finite difference
   96      3.53e-04     00000 Davidson Iteration
computing hessian-vector products by finite difference
   97      3.57e-04     00000 Davidson Iteration
computing hessian-vector products by finite difference
   98      3.63e-04     00000 Davidson Iteration
computing hessian-vector products by finite difference
   99      3.64e-04     00000 Davidson Iteration
computing hessian-vector products by finite difference
  100      3.74e-04     00000 Davidson Iteration
computing hessian-vector products by finite difference
  101      3.62e-04     00000 Davidson Iteration
computing hessian-vector products by finite difference
  102      3.66e-04     00000 Davidson Iteration
computing hessian-vector products by finite difference
  103      3.59e-04     00000 Davidson Iteration
computing hessian-vector products by finite difference
  104      3.68e-04     00000 Davidson Iteration
computing hessian-vector products by finite difference
  105      3.62e-04     00000 Davidson Iteration
computing hessian-vector products by finite difference
  106      3.63e-04     00000 Davidson Iteration
computing hessian-vector products by finite difference
  107      3.61e-04     00000 Davidson Iteration
computing hessian-vector products by finite difference
  108      3.64e-04     00000 Davidson Iteration
computing hessian-vector products by finite difference
  109      3.62e-04     00000 Davidson Iteration
computing hessian-vector products by finite difference
  110      3.62e-04     00000 Davidson Iteration
computing hessian-vector products by finite difference
  111      3.60e-04     00000 Davidson Iteration
computing hessian-vector products by finite difference
  112      3.58e-04     00000 Davidson Iteration
computing hessian-vector products by finite difference
  113      3.62e-04     00000 Davidson Iteration
computing hessian-vector products by finite difference
  114      3.74e-04     00000 Davidson Iteration
computing hessian-vector products by finite difference
  115      3.66e-04     00000 Davidson Iteration
computing hessian-vector products by finite difference
  116      3.69e-04     00000 Davidson Iteration
computing hessian-vector products by finite difference
  117      3.64e-04     00000 Davidson Iteration
computing hessian-vector products by finite difference
  118      3.70e-04     00000 Davidson Iteration
computing hessian-vector products by finite difference
  119      3.66e-04     00000 Davidson Iteration
computing hessian-vector products by finite difference
  120      3.64e-04     00000 Davidson Iteration
computing hessian-vector products by finite difference
  121      3.63e-04     00000 Davidson Iteration
computing hessian-vector products by finite difference
  122      3.64e-04     00000 Davidson Iteration
computing hessian-vector products by finite difference
  123      3.64e-04     00000 Davidson Iteration
computing hessian-vector products by finite difference
  124      3.70e-04     00000 Davidson Iteration
computing hessian-vector products by finite difference
  125      3.67e-04     00000 Davidson Iteration
computing hessian-vector products by finite difference
  126      3.64e-04     00000 Davidson Iteration
computing hessian-vector products by finite difference
  127      3.69e-04     00000 Davidson Iteration
computing hessian-vector products by finite difference
  128      3.62e-04     00000 Davidson Iteration
computing hessian-vector products by finite difference
  129      3.66e-04     00000 Davidson Iteration
computing hessian-vector products by finite difference
  130      3.66e-04     00000 Davidson Iteration
computing hessian-vector products by finite difference
  131      3.64e-04     00000 Davidson Iteration
computing hessian-vector products by finite difference
  132      3.58e-04     00000 Davidson Iteration
computing hessian-vector products by finite difference
  133      3.58e-04     00000 Davidson Iteration
computing hessian-vector products by finite difference
  134      3.57e-04     00000 Davidson Iteration
computing hessian-vector products by finite difference
  135      3.58e-04     00000 Davidson Iteration
computing hessian-vector products by finite difference
  136      3.63e-04     00000 Davidson Iteration
computing hessian-vector products by finite difference
  137      3.65e-04     00000 Davidson Iteration
computing hessian-vector products by finite difference
  138      3.64e-04     00000 Davidson Iteration
computing hessian-vector products by finite difference
  139      3.67e-04     00000 Davidson Iteration
computing hessian-vector products by finite difference
  140      3.75e-04     00000 Davidson Iteration
computing hessian-vector products by finite difference
  141      3.70e-04     00000 Davidson Iteration
computing hessian-vector products by finite difference
  142      3.71e-04     00000 Davidson Iteration
computing hessian-vector products by finite difference
  143      3.61e-04     00000 Davidson Iteration
computing hessian-vector products by finite difference
  144      3.67e-04     00000 Davidson Iteration
computing hessian-vector products by finite difference
  145      3.72e-04     00000 Davidson Iteration
computing hessian-vector products by finite difference
  146      3.55e-04     00000 Davidson Iteration
computing hessian-vector products by finite difference
  147      3.55e-04     00000 Davidson Iteration
computing hessian-vector products by finite difference
  148      3.61e-04     00000 Davidson Iteration
computing hessian-vector products by finite difference
  149      3.57e-04     00000 Davidson Iteration
computing hessian-vector products by finite difference
  150      3.58e-04     00000 Davidson Iteration
computing hessian-vector products by finite difference
  151      3.66e-04     00000 Davidson Iteration
computing hessian-vector products by finite difference
  152      3.80e-04     00000 Davidson Iteration
computing hessian-vector products by finite difference
  153      3.67e-04     00000 Davidson Iteration
computing hessian-vector products by finite difference
  154      3.69e-04     00000 Davidson Iteration
computing hessian-vector products by finite difference
  155      3.69e-04     00000 Davidson Iteration
computing hessian-vector products by finite difference
  156      3.72e-04     00000 Davidson Iteration
computing hessian-vector products by finite difference
  157      3.67e-04     00000 Davidson Iteration
computing hessian-vector products by finite difference
  158      3.71e-04     00000 Davidson Iteration
computing hessian-vector products by finite difference
  159      3.60e-04     00000 Davidson Iteration
computing hessian-vector products by finite difference
  160      3.55e-04     00000 Davidson Iteration
computing hessian-vector products by finite difference
  161      3.66e-04     00000 Davidson Iteration
computing hessian-vector products by finite difference
  162      3.74e-04     00000 Davidson Iteration
computing hessian-vector products by finite difference
  163      3.73e-04     00000 Davidson Iteration
computing hessian-vector products by finite difference
  164      3.66e-04     00000 Davidson Iteration
computing hessian-vector products by finite difference
  165      3.65e-04     00000 Davidson Iteration
computing hessian-vector products by finite difference
  166      3.65e-04     00000 Davidson Iteration
computing hessian-vector products by finite difference
  167      3.64e-04     00000 Davidson Iteration
computing hessian-vector products by finite difference
  168      3.66e-04     00000 Davidson Iteration
computing hessian-vector products by finite difference
  169      3.66e-04     00000 Davidson Iteration
computing hessian-vector products by finite difference
  170      3.83e-04     00000 Davidson Iteration
computing hessian-vector products by finite difference
  171      3.82e-04     00000 Davidson Iteration
computing hessian-vector products by finite difference
  172      3.85e-04     00000 Davidson Iteration
computing hessian-vector products by finite difference
  173      3.84e-04     00000 Davidson Iteration
computing hessian-vector products by finite difference
  174      3.84e-04     00000 Davidson Iteration
computing hessian-vector products by finite difference
  175      3.83e-04     00000 Davidson Iteration
computing hessian-vector products by finite difference
  176      3.89e-04     00000 Davidson Iteration
computing hessian-vector products by finite difference
  177      3.85e-04     00000 Davidson Iteration
computing hessian-vector products by finite difference
  178      3.86e-04     00000 Davidson Iteration
computing hessian-vector products by finite difference
  179      3.94e-04     00000 Davidson Iteration
computing hessian-vector products by finite difference
  180      3.92e-04     00000 Davidson Iteration
computing hessian-vector products by finite difference
  181      3.86e-04     00000 Davidson Iteration
computing hessian-vector products by finite difference
  182      3.83e-04     00000 Davidson Iteration
computing hessian-vector products by finite difference
  183      3.78e-04     00000 Davidson Iteration
computing hessian-vector products by finite difference
  184      3.80e-04     00000 Davidson Iteration
computing hessian-vector products by finite difference
  185      3.75e-04     00000 Davidson Iteration
computing hessian-vector products by finite difference
  186      3.72e-04     00000 Davidson Iteration
computing hessian-vector products by finite difference
  187      3.69e-04     00000 Davidson Iteration
computing hessian-vector products by finite difference
  188      3.76e-04     00000 Davidson Iteration
computing hessian-vector products by finite difference
  189      3.76e-04     00000 Davidson Iteration
computing hessian-vector products by finite difference
  190      3.72e-04     00000 Davidson Iteration
computing hessian-vector products by finite difference
  191      3.70e-04     00000 Davidson Iteration
computing hessian-vector products by finite difference
  192      3.71e-04     00000 Davidson Iteration
computing hessian-vector products by finite difference
  193      3.68e-04     00000 Davidson Iteration
computing hessian-vector products by finite difference
  194      3.68e-04     00000 Davidson Iteration
computing hessian-vector products by finite difference
  195      3.79e-04     00000 Davidson Iteration
computing hessian-vector products by finite difference
  196      3.68e-04     00000 Davidson Iteration
computing hessian-vector products by finite difference
  197      3.67e-04     00000 Davidson Iteration
computing hessian-vector products by finite difference
  198      3.63e-04     00000 Davidson Iteration
computing hessian-vector products by finite difference
  199      3.63e-04     00000 Davidson Iteration
computing hessian-vector products by finite difference
  200      3.63e-04     00000 Davidson Iteration

 Q-Chem fatal error occurred in module libgscf/gen_scfman/internal_stability.C, line 86:

 Davidson failed to converge. Increase INTERNAL_STABILITY_DAVIDSON_ITER or try something else.


 Please submit a crash report at q-chem.com/reporter 
 
 
