Q-Chem Developer Version!
                  Welcome to Q-Chem
     A Quantum Leap Into The Future Of Chemistry


 Q-Chem 5.1, Q-Chem, Inc., Pleasanton, CA (2018)

 Yihan Shao,  Zhengting Gan,  E. Epifanovsky,  A. T. B. Gilbert,  M. Wormit,  
 J. Kussmann,  A. W. Lange,  A. Behn,  Jia Deng,  Xintian Feng,  D. Ghosh,  
 M. Goldey,  P. R. Horn,  L. D. Jacobson,  I. Kaliman,  T. Kus,  A. Landau,  
 Jie Liu,  E. I. Proynov,  R. M. Richard,  R. P. Steele,  E. J. Sundstrom,  
 H. L. Woodcock III,  P. M. Zimmerman,  D. Zuev,  B. Albrecht,  E. Alguire,  
 S. A. Baeppler,  D. Barton,  Z. Benda,  Y. A. Bernard,  E. J. Berquist,  
 K. B. Bravaya,  H. Burton,  D. Casanova,  Chun-Min Chang,  Yunqing Chen,  
 A. Chien,  K. D. Closser,  M. P. Coons,  S. Coriani,  S. Dasgupta,  
 A. L. Dempwolff,  M. Diedenhofen,  Hainam Do,  R. G. Edgar,  Po-Tung Fang,  
 S. Faraji,  S. Fatehi,  Qingguo Feng,  K. D. Fenk,  J. Fosso-Tande,  
 Qinghui Ge,  A. Ghysels,  G. Gidofalvi,  J. Gomes,  J. Gonthier,  A. Gunina,  
 D. Hait,  M. W. D. Hanson-Heine,  P. H. P. Harbach,  A. W. Hauser,  
 J. E. Herr,  E. G. Hohenstein,  Z. C. Holden,  Kerwin Hui,  B. C. Huynh,  
 T.-C. Jagau,  Hyunjun Ji,  B. Kaduk,  K. Khistyaev,  Jaehoon Kim,  
 P. Klunzinger,  K. Koh,  D. Kosenkov,  L. Koulias,  T. Kowalczyk,  
 C. M. Krauter,  A. Kunitsa,  Ka Un Lao,  A. Laurent,  K. V. Lawler,  
 Joonho Lee,  D. Lefrancois,  S. Lehtola,  D. S. Levine,  Yi-Pei Li,  
 You-Sheng Lin,  Fenglai Liu,  E. Livshits,  A. Luenser,  P. Manohar,  
 E. Mansoor,  S. F. Manzer,  Shan-Ping Mao,  Yuezhi Mao,  N. Mardirossian,  
 A. V. Marenich,  T. Markovich,  L. A. Martinez-Martinez,  S. A. Maurer,  
 N. J. Mayhall,  S. C. McKenzie,  J.-M. Mewes,  A. F. Morrison,  
 J. W. Mullinax,  K. Nanda,  T. S. Nguyen-Beck,  R. Olivares-Amaya,  
 J. A. Parkhill,  T. M. Perrine,  F. Plasser,  P. Pokhilko,  S. Prager,  
 A. Prociuk,  E. Ramos,  D. R. Rehn,  F. Rob,  M. Schneider,  N. Sergueev,  
 S. M. Sharada,  S. Sharma,  D. W. Small,  T. Stauch,  T. Stein,  
 Yu-Chuan Su,  A. J. W. Thom,  A. Tkatchenko,  T. Tsuchimochi,  N. M. Tubman,  
 L. Vogt,  M. L. Vidal,  O. Vydrov,  M. A. Watson,  J. Wenzel,  
 M. de Wergifosse,  T. A. Wesolowski,  A. White,  J. Witte,  A. Yamada,  
 Jun Yang,  K. Yao,  S. Yeganeh,  S. R. Yost,  Zhi-Qiang You,  A. Zech,  
 Igor Ying Zhang,  Xing Zhang,  Yan Zhao,  Ying Zhu,  B. R. Brooks,  
 G. K. L. Chan,  C. J. Cramer,  M. S. Gordon,  W. J. Hehre,  A. Klamt,  
 M. W. Schmidt,  C. D. Sherrill,  D. G. Truhlar,  A. Aspuru-Guzik,  R. Baer,  
 A. T. Bell,  N. A. Besley,  Jeng-Da Chai,  A. E. DePrince, III,  
 R. A. DiStasio Jr.,  A. Dreuw,  B. D. Dunietz,  T. R. Furlani,  
 Chao-Ping Hsu,  Yousung Jung,  Jing Kong,  D. S. Lambrecht,  WanZhen Liang,  
 C. Ochsenfeld,  V. A. Rassolov,  L. V. Slipchenko,  J. E. Subotnik,  
 T. Van Voorhis,  J. M. Herbert,  A. I. Krylov,  P. M. W. Gill,  M. Head-Gordon

 Contributors to earlier versions of Q-Chem not listed above: 
 R. D. Adamson,  B. Austin,  J. Baker,  G. J. O. Beran,  K. Brandhorst,  
 S. T. Brown,  E. F. C. Byrd,  A. K. Chakraborty,  C.-L. Cheng,  
 Siu Hung Chien,  D. M. Chipman,  D. L. Crittenden,  H. Dachsel,  
 R. J. Doerksen,  A. D. Dutoi,  L. Fusti-Molnar,  W. A. Goddard III,  
 A. Golubeva-Zadorozhnaya,  S. R. Gwaltney,  G. Hawkins,  A. Heyden,  
 S. Hirata,  G. Kedziora,  F. J. Keil,  C. Kelley,  Jihan Kim,  R. A. King,  
 R. Z. Khaliullin,  P. P. Korambath,  W. Kurlancheek,  A. M. Lee,  M. S. Lee,  
 S. V. Levchenko,  Ching Yeh Lin,  D. Liotard,  R. C. Lochan,  I. Lotan,  
 P. E. Maslen,  N. Nair,  D. P. O'Neill,  D. Neuhauser,  E. Neuscamman,  
 C. M. Oana,  R. Olson,  B. Peters,  R. Peverati,  P. A. Pieniazek,  
 Y. M. Rhee,  J. Ritchie,  M. A. Rohrdanz,  E. Rosta,  N. J. Russ,  
 H. F. Schaefer III,  N. E. Schultz,  N. Shenvi,  A. C. Simmonett,  A. Sodt,  
 D. Stuck,  K. S. Thanthiriwatte,  V. Vanovschi,  Tao Wang,  A. Warshel,  
 C. F. Williams,  Q. Wu,  X. Xu,  W. Zhang

 Please cite Q-Chem as follows:
 Y. Shao et al., Mol. Phys. 113, 184-215 (2015)
 DOI: 10.1080/00268976.2014.952696

 Q-Chem 5.1.1 for Intel X86 EM64T Linux

 Parts of Q-Chem use Armadillo 8.300.2 (Tropical Shenanigans).
 http://arma.sourceforge.net/

 Q-Chem begins on Mon Oct 26 15:33:37 2020  

Host: n0042.mhg0
0

     Scratch files written to /local/scratch/users/yhljason/BH2F_ccsd_aug-cc-pcVTZ.inp20201026153334//
Input Ideriv = 1
Curr. Ideriv = -1
Max.  Ideriv = 1

Checking the input file for inconsistencies... 	...done.

--------------------------------------------------------------
User input:
--------------------------------------------------------------
$molecule
0 1
B        0.0000000000      0.0000000000      0.0000000000
F        0.0000000000      0.0000000000      1.3157000000
H        0.0000000000      1.0599000000     -0.5569000000
H        0.0000000000     -1.0599000000     -0.5569000000
$end

$rem
method ccsd
basis aug-cc-pcVTZ
CC_REF_PROP true
cc_fullresponse true
n_frozen_core 0
scf_convergence 8
scf_algorithm gdm
thresh 14
symmetry false
sym_ignore true
$end
--------------------------------------------------------------
 ----------------------------------------------------------------
             Standard Nuclear Orientation (Angstroms)
    I     Atom           X                Y                Z
 ----------------------------------------------------------------
    1      B       0.0000000000     0.0000000000     0.0000000000
    2      F       0.0000000000     0.0000000000     1.3157000000
    3      H       0.0000000000     1.0599000000    -0.5569000000
    4      H       0.0000000000    -1.0599000000    -0.5569000000
 ----------------------------------------------------------------
 Nuclear Repulsion Energy =    27.1952060366 hartrees
 There are        8 alpha and        8 beta electrons
 Requested basis set is aug-cc-pCVTZ
 There are 56 shells and 164 basis functions
 Total memory of 2000MB is distributed as follows: 
   QALLOC including MEM_STATIC uses 192MB
   MEM_STATIC is set to 192MB
   CCMAN JOB total memory use is  1808MB
 Warning: actual memory use might exceed 2000MB

 Total QAlloc Memory Limit    192 MB
 Mega-Array Size       188 MB
 MEM_STATIC part       192 MB

                       Distance Matrix (Angstroms)
             B (  1)   F (  2)   H (  3)
   F (  2)  1.315700
   H (  3)  1.197299  2.151748
   H (  4)  1.197299  2.151748  2.119800
 
 A cutoff of  1.0D-14 yielded   1585 shell pairs
 There are     13685 function pairs (     18056 Cartesian)
 
 -------------------------------------------------------
 OpenMP Integral Computing Module                       
 Release: version 1.0, May 2013, Q-Chem Inc. Pittsburgh 
 -------------------------------------------------------
 Integral Job Info:
 Integral job number is                      11
 Integral operator is                         1
 short-range coefficients                     0
 long-range coefficients              100000000
 Omega coefficients                           0
 if combine SR and LR in K                    0
 Integral screening is                        0
 Integral computing path is                   2
 max size of driver memory is            800000
 size of driver memory is                776718
 size of scratch memory is              6691272
 max col of scratch BK array              10000
 max len of scratch array in speh3          662
 max len of scratch index in speh4           32
 max int batch size is                      520
 min int batch size is                       52
 fixed nKL is                                52
 max L of basis functions is                  3
 order of int derivative is                   0
 number of shells is                         56
 number of basis is                         188
 number of cartesian basis is               188
 number of contracted shell pairs          1585
 number of primitive shell pairs           3974
 maxK2 (contraction) of shell pair           64
 max number of K2 of shell pair               1
 max number of CS2 of shell pair            257
 max number of PS2 of shell pair            464
 mem total for path MDJ                  562704
 -------------------------------------------------------
 Smallest overlap matrix eigenvalue = 9.30E-05

 Scale SEOQF with 1.000000e-01/1.000000e-01/1.000000e-01

 Standard Electronic Orientation quadrupole field applied
 Nucleus-field energy     =    -0.0000000016 hartrees
 Guess from superposition of atomic densities
 Warning:  Energy on first SCF cycle will be non-variational
 SAD guess density has 16.000000 electrons

 -----------------------------------------------------------------------
  General SCF calculation program by
  Eric Jon Sundstrom, Paul Horn, Yuezhi Mao, Dmitri Zuev, Alec White,
  David Stuck, Shaama M.S., Shane Yost, Joonho Lee, David Small,
  Daniel Levine, Susi Lehtola, Hugh Burton, Evgeny Epifanovsky
 -----------------------------------------------------------------------
 Hartree-Fock
 using 8 threads for integral computing
 -------------------------------------------------------
 OpenMP Integral computing Module                
 Release: version 2.0, May 2017, Q-Chem Inc. Pleasanton 
 -------------------------------------------------------
 A restricted SCF calculation will be
 performed using Roothaan-Hall, GDM
 SCF converges when RMS gradient is below 1.0e-08
 ---------------------------------------
  Cycle       Energy         DIIS error
 ---------------------------------------
    1    -125.3662318150      2.49e-02  Roothaan Step
 ---------------------------------------
  Cycle       Energy        RMS Gradient
 ---------------------------------------
    1    -125.3395178393      5.28e-02   Normal BFGS step
    2    -125.3673206891      2.69e-02   Normal BFGS step
    3    -125.3750563340      3.90e-03   Normal BFGS step
    4    -125.3752043805      9.49e-04   Normal BFGS step
    5    -125.3752121202      1.21e-04   Normal BFGS step
    6    -125.3752124138      2.92e-05   Normal BFGS step
    7    -125.3752124318      6.02e-06   Normal BFGS step
    8    -125.3752124324      2.00e-06   Normal BFGS step
    9    -125.3752124325      3.40e-07   Normal BFGS step
   10    -125.3752124325      8.51e-08   Normal BFGS step
   11    -125.3752124325      2.11e-08   Normal BFGS step
   12    -125.3752124325      7.26e-09  Convergence criterion met
 ---------------------------------------
 SCF time:   CPU 177.12s  wall 22.00s 
 SCF   energy in the final basis set =     -125.3752124325
 Total energy in the final basis set =     -125.3752124325


 ------------------------------------------------------------------------------

   CCMAN2: suite of methods based on coupled cluster
           and equation of motion theories.

   Components:
   * libvmm-1.3-trunk
     by Evgeny Epifanovsky, Ilya Kaliman.
   * libtensor-2.5-trunk
     by Evgeny Epifanovsky, Michael Wormit, Dmitry Zuev, Sam Manzer, 
        Ilya Kaliman.
   * libcc-2.5-trunk
     by Evgeny Epifanovsky, Arik Landau, Tomasz Kus, Kirill Khistyaev, 
        Dmitry Zuev, Prashant Manohar, Xintian Feng, Anna Krylov, 
        Matthew Goldey, Alec White, Thomas Jagau, Kaushik Nanda, 
        Anastasia Gunina, Alexander Kunitsa, Joonho Lee.

   CCMAN original authors:
   Anna I. Krylov, C. David Sherrill, Steven R. Gwaltney,
   Edward F. C. Byrd (2000)
   Sergey V. Levchenko, Lyudmila V. Slipchenko, Tao Wang,
   Ana-Maria C. Cristian (2003)
   Piotr A. Pieniazek, C. Melania Oana, Evgeny Epifanovsky (2007)
   Prashant Manohar (2009)

 ------------------------------------------------------------------------------


 Allocating and initializing 1808MB of RAM...
 Calculation will run on 8 cores.

 
 Alpha MOs, Restricted
 -- Occupied --                  
-26.308  -7.666  -1.622  -0.795  -0.708  -0.676  -0.628  -0.488
  1 A     2 A     3 A     4 A     5 A     6 A     7 A     8 A                  
 -- Virtual --                   
  0.034   0.038   0.046   0.047   0.083   0.109   0.118   0.150
  9 A    10 A    11 A    12 A    13 A    14 A    15 A    16 A                  
  0.166   0.166   0.191   0.200   0.208   0.243   0.276   0.279
 17 A    18 A    19 A    20 A    21 A    22 A    23 A    24 A                  
  0.290   0.321   0.340   0.345   0.352   0.353   0.373   0.422
 25 A    26 A    27 A    28 A    29 A    30 A    31 A    32 A                  
  0.429   0.465   0.553   0.574   0.626   0.637   0.681   0.699
 33 A    34 A    35 A    36 A    37 A    38 A    39 A    40 A                  
  0.729   0.750   0.751   0.757   0.780   0.793   0.828   0.830
 41 A    42 A    43 A    44 A    45 A    46 A    47 A    48 A                  
  1.008   1.012   1.037   1.040   1.066   1.070   1.095   1.110
 49 A    50 A    51 A    52 A    53 A    54 A    55 A    56 A                  
  1.115   1.118   1.132   1.176   1.269   1.278   1.302   1.334
 57 A    58 A    59 A    60 A    61 A    62 A    63 A    64 A                  
  1.376   1.384   1.430   1.473   1.584   1.638   1.665   1.680
 65 A    66 A    67 A    68 A    69 A    70 A    71 A    72 A                  
  1.749   1.876   1.922   2.001   2.017   2.114   2.114   2.115
 73 A    74 A    75 A    76 A    77 A    78 A    79 A    80 A                  
  2.143   2.323   2.411   2.445   2.470   2.582   2.604   2.746
 81 A    82 A    83 A    84 A    85 A    86 A    87 A    88 A                  
  2.784   2.842   2.873   3.085   3.087   3.094   3.108   3.284
 89 A    90 A    91 A    92 A    93 A    94 A    95 A    96 A                  
  3.325   3.474   3.500   3.503   3.562   3.641   3.797   4.039
 97 A    98 A    99 A   100 A   101 A   102 A   103 A   104 A                  
  4.070   4.159   4.210   4.227   4.366   4.448   4.606   4.622
105 A   106 A   107 A   108 A   109 A   110 A   111 A   112 A                  
  4.669   4.711   4.793   4.817   4.987   5.132   5.259   5.467
113 A   114 A   115 A   116 A   117 A   118 A   119 A   120 A                  
  5.473   5.494   5.564   6.191   6.343   7.849   8.885   8.895
121 A   122 A   123 A   124 A   125 A   126 A   127 A   128 A                  
  9.037   9.109   9.205   9.304   9.363   9.447   9.450   9.546
129 A   130 A   131 A   132 A   133 A   134 A   135 A   136 A                  
  9.736   9.810  10.767  11.874  12.140  12.664  32.292  32.579
137 A   138 A   139 A   140 A   141 A   142 A   143 A   144 A                  
 32.997  35.994  37.272  37.302  37.415  37.426  37.453  53.239
145 A   146 A   147 A   148 A   149 A   150 A   151 A   152 A                  
 53.241  53.289  53.370  53.382  56.218  57.098  57.418  60.921
153 A   154 A   155 A   156 A   157 A   158 A   159 A   160 A                  
170.676 170.881 171.211 184.240
161 A   162 A   163 A   164 A                                                  
 
 Beta MOs, Restricted
 -- Occupied --                  
-26.308  -7.666  -1.622  -0.795  -0.708  -0.676  -0.628  -0.488
  1 A     2 A     3 A     4 A     5 A     6 A     7 A     8 A                  
 -- Virtual --                   
  0.034   0.038   0.046   0.047   0.083   0.109   0.118   0.150
  9 A    10 A    11 A    12 A    13 A    14 A    15 A    16 A                  
  0.166   0.166   0.191   0.200   0.208   0.243   0.276   0.279
 17 A    18 A    19 A    20 A    21 A    22 A    23 A    24 A                  
  0.290   0.321   0.340   0.345   0.352   0.353   0.373   0.422
 25 A    26 A    27 A    28 A    29 A    30 A    31 A    32 A                  
  0.429   0.465   0.553   0.574   0.626   0.637   0.681   0.699
 33 A    34 A    35 A    36 A    37 A    38 A    39 A    40 A                  
  0.729   0.750   0.751   0.757   0.780   0.793   0.828   0.830
 41 A    42 A    43 A    44 A    45 A    46 A    47 A    48 A                  
  1.008   1.012   1.037   1.040   1.066   1.070   1.095   1.110
 49 A    50 A    51 A    52 A    53 A    54 A    55 A    56 A                  
  1.115   1.118   1.132   1.176   1.269   1.278   1.302   1.334
 57 A    58 A    59 A    60 A    61 A    62 A    63 A    64 A                  
  1.376   1.384   1.430   1.473   1.584   1.638   1.665   1.680
 65 A    66 A    67 A    68 A    69 A    70 A    71 A    72 A                  
  1.749   1.876   1.922   2.001   2.017   2.114   2.114   2.115
 73 A    74 A    75 A    76 A    77 A    78 A    79 A    80 A                  
  2.143   2.323   2.411   2.445   2.470   2.582   2.604   2.746
 81 A    82 A    83 A    84 A    85 A    86 A    87 A    88 A                  
  2.784   2.842   2.873   3.085   3.087   3.094   3.108   3.284
 89 A    90 A    91 A    92 A    93 A    94 A    95 A    96 A                  
  3.325   3.474   3.500   3.503   3.562   3.641   3.797   4.039
 97 A    98 A    99 A   100 A   101 A   102 A   103 A   104 A                  
  4.070   4.159   4.210   4.227   4.366   4.448   4.606   4.622
105 A   106 A   107 A   108 A   109 A   110 A   111 A   112 A                  
  4.669   4.711   4.793   4.817   4.987   5.132   5.259   5.467
113 A   114 A   115 A   116 A   117 A   118 A   119 A   120 A                  
  5.473   5.494   5.564   6.191   6.343   7.849   8.885   8.895
121 A   122 A   123 A   124 A   125 A   126 A   127 A   128 A                  
  9.037   9.109   9.205   9.304   9.363   9.447   9.450   9.546
129 A   130 A   131 A   132 A   133 A   134 A   135 A   136 A                  
  9.736   9.810  10.767  11.874  12.140  12.664  32.292  32.579
137 A   138 A   139 A   140 A   141 A   142 A   143 A   144 A                  
 32.997  35.994  37.272  37.302  37.415  37.426  37.453  53.239
145 A   146 A   147 A   148 A   149 A   150 A   151 A   152 A                  
 53.241  53.289  53.370  53.382  56.218  57.098  57.418  60.921
153 A   154 A   155 A   156 A   157 A   158 A   159 A   160 A                  
170.676 170.881 171.211 184.240
161 A   162 A   163 A   164 A                                                  

 Occupation and symmetry of molecular orbitals

 Point group: C1 (1 irreducible representation).

                           A     All 
 -------------------------------------
 All molecular orbitals:
  - Alpha                  164   164 
  - Beta                   164   164 
 -------------------------------------
 Alpha orbitals:
  - Frozen occupied        0     0   
  - Active occupied        8     8   
  - Active virtual         156   156 
  - Frozen virtual         0     0   
 -------------------------------------
 Beta orbitals:
  - Frozen occupied        0     0   
  - Active occupied        8     8   
  - Active virtual         156   156 
  - Frozen virtual         0     0   
 -------------------------------------

 Import integrals:   CPU 0.00 s  wall 0.00 s

 Import integrals:   CPU 176.50 s  wall 55.12 s

 MP2 amplitudes:   CPU 0.55 s  wall 0.52 s

Running a double precision version
           CCSD T amplitudes will be solved using DIIS.

           Start     Size      MaxIter   EConv     TConv     
           3         7         100       1.00e-06  1.00e-04  
 ------------------------------------------------------------------------------
           Energy (a.u.)   Ediff      Tdiff       Comment
 ------------------------------------------------------------------------------
          -125.84489516                           
     1    -125.85020302   5.31e-03   4.74e-01     Step took 01.27.
     2    -125.85995569   9.75e-03   6.42e-02     
     3    -125.85999834   4.26e-05   2.34e-02     
     4    -125.86081878   8.20e-04   8.53e-03     Switched to DIIS steps.
     5    -125.86111191   2.93e-04   5.09e-03     
     6    -125.86112093   9.02e-06   9.21e-04     
     7    -125.86112475   3.82e-06   5.43e-04     
     8    -125.86112598   1.22e-06   1.24e-04     
     9    -125.86112626   2.82e-07   4.68e-05     
 ------------------------------------------------------------------------------
          -125.86112626                           CCSD T converged.

End of double precision
 SCF energy                 = -125.37521243
 MP2 energy                 = -125.84489516
 CCSD correlation energy     =   -0.48591383
 CCSD total energy           = -125.86112626

 CCSD  T1^2 = 0.0042  T2^2 = 0.0968  Leading amplitudes:

 Amplitude    Orbitals with energies
 -0.0270       6 (A) A                   ->    14 (A) A                   
              -0.6764                          0.1095                     
 -0.0270       6 (A) B                   ->    14 (A) B                   
              -0.6764                          0.1095                     
  0.0164       6 (A) A                   ->    10 (A) A                   
              -0.6764                          0.0384                     
  0.0164       6 (A) B                   ->    10 (A) B                   
              -0.6764                          0.0384                     

 Amplitude    Orbitals with energies
 -0.0226       7 (A) A       7 (A) B     ->    14 (A) A      14 (A) B     
              -0.6283       -0.6283            0.1095        0.1095       
  0.0226       7 (A) A       7 (A) B     ->    14 (A) B      14 (A) A     
              -0.6283       -0.6283            0.1095        0.1095       
  0.0226       7 (A) B       7 (A) A     ->    14 (A) A      14 (A) B     
              -0.6283       -0.6283            0.1095        0.1095       
 -0.0226       7 (A) B       7 (A) A     ->    14 (A) B      14 (A) A     
              -0.6283       -0.6283            0.1095        0.1095       

 Computing CCSD intemediates for later calculations in double precision
 Finished.

Running a double precision version
           CCSD Lambda amplitudes will be solved using DIIS.
           Start     Size      MaxIter   EConv     LConv     
           3         7         100       1.00e-06  1.00e-04  
 ------------------------------------------------------------------------------
            Enorm      Ldiff       Comment
 ------------------------------------------------------------------------------
     1     2.64e-02   1.21e-02     
     2     1.05e-02   5.10e-03     
     3     4.02e-03   1.11e-04     
     4     1.90e-03   6.88e-04     Switched to DIIS steps.
     5     4.63e-04   3.46e-04     
     6     2.07e-04   4.53e-05     
     7     4.82e-05   1.37e-05     
     8     1.71e-05   1.59e-06     
     9     4.31e-06   3.48e-07     
    10     1.55e-06   1.19e-08     
    11     5.94e-07   5.92e-08     
 ------------------------------------------------------------------------------
                                   CCSD Lambda converged.

 Computing density matrices in double precision...
           Orbital response amplitudes will be solved using DIIS.
           Start     Size      MaxIter   EConv     LConv     
           3         7         100       1.00e-06  1.00e-06  
 ------------------------------------------------------------------------------
            Enorm      Ldiff       Comment
 ------------------------------------------------------------------------------
     1     4.33e-02   4.53e-03     
     2     2.38e-02   1.65e-02     
     3     2.19e-02   1.45e-02     
     4     1.09e-03   9.49e-03     Switched to DIIS steps.
     5     9.55e-05   2.63e-04     
     6     4.04e-05   4.23e-05     
     7     4.23e-06   7.20e-06     
     8     6.00e-07   2.92e-07     
 ------------------------------------------------------------------------------
                                   Orbital response converged.

 Computing density matrices... Done.
 Reference state properties
 Relaxed dipole moment (a.u.): 0.334385 (X 0.000000, Y 0.000000, Z -0.334385)
 Relaxed R-squared (a.u.): 93.988923 (XX 8.088548, YY 17.439973, ZZ 68.460402)
 Relaxed density matrix was written to a file for further analysis.

 CCSD calculation:   CPU 2696.17 s  wall 4055.06 s

 Total ccman2 time:   CPU 2894.49 s  wall 4115.58 s

 
 --------------------------------------------------------------
 
                    Orbital Energies (a.u.)
 --------------------------------------------------------------
 
 Alpha MOs
 -- Occupied --
-26.308  -7.666  -1.622  -0.795  -0.708  -0.676  -0.628  -0.488
 -- Virtual --
  0.034   0.038   0.046   0.047   0.083   0.109   0.118   0.150
  0.166   0.166   0.191   0.200   0.208   0.243   0.276   0.279
  0.290   0.321   0.340   0.345   0.352   0.353   0.373   0.422
  0.429   0.465   0.553   0.574   0.626   0.637   0.681   0.699
  0.729   0.750   0.751   0.757   0.780   0.793   0.828   0.830
  1.008   1.012   1.037   1.040   1.066   1.070   1.095   1.110
  1.115   1.118   1.132   1.176   1.269   1.278   1.302   1.334
  1.376   1.384   1.430   1.473   1.584   1.638   1.665   1.680
  1.749   1.876   1.922   2.001   2.017   2.114   2.114   2.115
  2.143   2.323   2.411   2.445   2.470   2.582   2.604   2.746
  2.784   2.842   2.873   3.085   3.087   3.094   3.108   3.284
  3.325   3.474   3.500   3.503   3.562   3.641   3.797   4.039
  4.070   4.159   4.210   4.227   4.366   4.448   4.606   4.622
  4.669   4.711   4.793   4.817   4.987   5.132   5.259   5.467
  5.473   5.494   5.564   6.191   6.343   7.849   8.885   8.895
  9.037   9.109   9.205   9.304   9.363   9.447   9.450   9.546
  9.736   9.810  10.767  11.874  12.140  12.664  32.292  32.579
 32.997  35.994  37.272  37.302  37.415  37.426  37.453  53.239
 53.241  53.289  53.370  53.382  56.218  57.098  57.418  60.921
170.676 170.881 171.211 184.240
 --------------------------------------------------------------
 
          Ground-State Mulliken Net Atomic Charges

     Atom                 Charge (a.u.)
  ----------------------------------------
      1 B                     0.601191
      2 F                    -0.496857
      3 H                    -0.052167
      4 H                    -0.052167
  ----------------------------------------
  Sum of atomic charges =     0.000000

 -----------------------------------------------------------------
                    Cartesian Multipole Moments
 -----------------------------------------------------------------
    Charge (ESU x 10^10)
                -0.0000
    Dipole Moment (Debye)
         X       0.0000      Y      -0.0000      Z      -0.8499
       Tot       0.8499
    Quadrupole Moments (Debye-Ang)
        XX     -10.8794     XY       0.0000     YY     -12.6656
        XZ      -0.0000     YZ       0.0000     ZZ     -14.2703
    Octopole Moments (Debye-Ang^2)
       XXX       0.0000    XXY      -0.0000    XYY       0.0000
       YYY      -0.0000    XXZ      -5.1568    XYZ       0.0000
       YYZ      -5.0546    XZZ      -0.0000    YZZ      -0.0000
       ZZZ     -18.2724
    Hexadecapole Moments (Debye-Ang^3)
      XXXX      -9.3517   XXXY       0.0000   XXYY      -6.1846
      XYYY       0.0000   YYYY     -25.6985   XXXZ       0.0000
      XXYZ       0.0000   XYYZ       0.0000   YYYZ       0.0000
      XXZZ     -12.8455   XYZZ      -0.0000   YYZZ     -15.5024
      XZZZ       0.0000   YZZZ       0.0000   ZZZZ     -69.6136
 -----------------------------------------------------------------
Archival summary:
1\1\n0042.mhg0\SP\ProcedureUnspecified\BasisUnspecified\112\yhljason\MonOct2616:42:392020MonOct2616:42:392020\0\\#,ProcedureUnspecified,BasisUnspecified,\\0,1\F\B,1,1.3157\H,2,1.1973,1,117.719\H,2,1.1973,1,117.719,3,-180,0\\HF=-125.375212\\@

 Total job time:  4141.76s(wall), 3081.48s(cpu) 
 Mon Oct 26 16:42:39 2020

        *************************************************************
        *                                                           *
        *  Thank you very much for using Q-Chem.  Have a nice day.  *
        *                                                           *
        *************************************************************


