                  Welcome to Q-Chem
     A Quantum Leap Into The Future Of Chemistry


 Q-Chem 5.3 (devel), Q-Chem, Inc., Pleasanton, CA (2020)

 Yihan Shao,  Zhengting Gan,  E. Epifanovsky,  A. T. B. Gilbert,  M. Wormit,  
 J. Kussmann,  A. W. Lange,  A. Behn,  Jia Deng,  Xintian Feng,  D. Ghosh,  
 M. Goldey,  P. R. Horn,  L. D. Jacobson,  I. Kaliman,  T. Kus,  A. Landau,  
 Jie Liu,  E. I. Proynov,  R. M. Richard,  R. P. Steele,  E. J. Sundstrom,  
 H. L. Woodcock III,  P. M. Zimmerman,  D. Zuev,  B. Alam,  B. Albrecht,  
 A. Aldossary,  E. Alguire,  S. A. Baeppler,  D. Barton,  Z. Benda,  
 Y. A. Bernard,  E. J. Berquist,  K. B. Bravaya,  H. Burton,  K. Carter-Fenk,  
 D. Casanova,  Chun-Min Chang,  Yunqing Chen,  A. Chien,  K. D. Closser,  
 M. P. Coons,  S. Coriani,  S. Dasgupta,  A. L. Dempwolff,  M. Diedenhofen,  
 Hainam Do,  R. G. Edgar,  Po-Tung Fang,  S. Faraji,  S. Fatehi,  
 Qingguo Feng,  J. Fosso-Tande,  J. Gayvert,  Qinghui Ge,  A. Ghysels,  
 G. Gidofalvi,  J. Gomes,  J. Gonthier,  S. Gulania,  A. Gunina,  D. Hait,  
 M. W. D. Hanson-Heine,  S. Hammes-Schiffer,  P. H. P. Harbach,  
 A. W. Hauser,  M. F. Herbst,  J. E. Herr,  E. G. Hohenstein,  Z. C. Holden,  
 S. Houck,  Kerwin Hui,  B. C. Huynh,  M. Ivanov,  T.-C. Jagau,  Hyunjun Ji,  
 B. Kaduk,  K. Khistyaev,  Jaehoon Kim,  P. Klunzinger,  K. Koh,  
 D. Kosenkov,  L. Koulias,  T. Kowalczyk,  C. M. Krauter,  A. Kunitsa,  
 Ka Un Lao,  A. Laurent,  K. V. Lawler,  Joonho Lee,  D. Lefrancois,  
 S. Lehtola,  D. S. Levine,  Yi-Pei Li,  You-Sheng Lin,  Fenglai Liu,  
 Kuan-Yu Liu,  E. Livshits,  M. Loipersberger,  A. Luenser,  P. Manohar,  
 E. Mansoor,  S. F. Manzer,  Shan-Ping Mao,  Yuezhi Mao,  N. Mardirossian,  
 A. V. Marenich,  T. Markovich,  L. A. Martinez-Martinez,  S. A. Maurer,  
 N. J. Mayhall,  S. C. McKenzie,  J.-M. Mewes,  P. Morgante,  A. F. Morrison,  
 J. W. Mullinax,  K. Nanda,  T. S. Nguyen-Beck,  R. Olivares-Amaya,  
 K. J. Oosterbaan,  J. A. Parkhill,  S. K. Paul,  F. Pavosevic,  Zheng Pei,  
 T. M. Perrine,  F. Plasser,  P. Pokhilko,  S. Prager,  A. Prociuk,  
 E. Ramos,  B. Rana,  D. R. Rehn,  F. Rob,  E. Rossomme,  M. Scheurer,  
 M. Schneider,  N. Sergueev,  S. M. Sharada,  S. Sharma,  W. Skomorowski,  
 D. W. Small,  T. Stauch,  C. J. Stein,  T. Stein,  Yu-Chuan Su,  
 S. P. Veccham,  Zhen Tao,  A. J. W. Thom,  A. Tkatchenko,  T. Tsuchimochi,  
 N. M. Tubman,  L. Vogt,  M. L. Vidal,  O. Vydrov,  M. A. Watson,  J. Wenzel,  
 M. de Wergifosse,  T. A. Wesolowski,  A. White,  J. Witte,  A. Yamada,  
 Jun Yang,  K. Yao,  S. Yeganeh,  S. R. Yost,  Zhi-Qiang You,  A. Zech,  
 Igor Ying Zhang,  Xing Zhang,  Yan Zhao,  Ying Zhu,  B. R. Brooks,  
 G. K. L. Chan,  C. J. Cramer,  M. S. Gordon,  W. J. Hehre,  A. Klamt,  
 M. W. Schmidt,  C. D. Sherrill,  D. G. Truhlar,  A. Aspuru-Guzik,  R. Baer,  
 A. T. Bell,  N. A. Besley,  Jeng-Da Chai,  A. E. DePrince, III,  
 R. A. DiStasio Jr.,  A. Dreuw,  B. D. Dunietz,  T. R. Furlani,  
 Chao-Ping Hsu,  Yousung Jung,  Jing Kong,  D. S. Lambrecht,  WanZhen Liang,  
 C. Ochsenfeld,  V. A. Rassolov,  L. V. Slipchenko,  J. E. Subotnik,  
 T. Van Voorhis,  J. M. Herbert,  A. I. Krylov,  P. M. W. Gill,  M. Head-Gordon

 Contributors to earlier versions of Q-Chem not listed above: 
 R. D. Adamson,  B. Austin,  J. Baker,  G. J. O. Beran,  K. Brandhorst,  
 S. T. Brown,  E. F. C. Byrd,  A. K. Chakraborty,  C.-L. Cheng,  
 Siu Hung Chien,  D. M. Chipman,  D. L. Crittenden,  H. Dachsel,  
 R. J. Doerksen,  A. D. Dutoi,  L. Fusti-Molnar,  W. A. Goddard III,  
 A. Golubeva-Zadorozhnaya,  S. R. Gwaltney,  G. Hawkins,  A. Heyden,  
 S. Hirata,  G. Kedziora,  F. J. Keil,  C. Kelley,  Jihan Kim,  R. A. King,  
 R. Z. Khaliullin,  P. P. Korambath,  W. Kurlancheek,  A. M. Lee,  M. S. Lee,  
 S. V. Levchenko,  Ching Yeh Lin,  D. Liotard,  R. C. Lochan,  I. Lotan,  
 P. E. Maslen,  N. Nair,  D. P. O'Neill,  D. Neuhauser,  E. Neuscamman,  
 C. M. Oana,  R. Olson,  B. Peters,  R. Peverati,  P. A. Pieniazek,  
 Y. M. Rhee,  J. Ritchie,  M. A. Rohrdanz,  E. Rosta,  N. J. Russ,  
 H. F. Schaefer III,  N. E. Schultz,  N. Shenvi,  A. C. Simmonett,  A. Sodt,  
 D. Stuck,  K. S. Thanthiriwatte,  V. Vanovschi,  Tao Wang,  A. Warshel,  
 C. F. Williams,  Q. Wu,  X. Xu,  W. Zhang

 Please cite Q-Chem as follows:
 Y. Shao et al., Mol. Phys. 113, 184-215 (2015)
 DOI: 10.1080/00268976.2014.952696

 Q-Chem 5.3.1 for Intel X86 EM64T Linux

 Parts of Q-Chem use Armadillo 9.800.1 (Horizon Scraper).
 http://arma.sourceforge.net/

 Q-Chem begins on Wed Nov  4 21:48:31 2020  

n0013.cm1
Host: 0

     Scratch files written to /local/scratch/users/diptarka/qchem5228//
Processing $rem in /clusterfs/mhg/diptarka/qchem_ascidev2//config/preferences:
Processing $rem in /global/home/users/diptarka/.qchemrc:

Checking the input file for inconsistencies... 	...done.

--------------------------------------------------------------
User input:
--------------------------------------------------------------
$molecule
0 2
B1      0.0000  0.0000  0.0000
O2      0.0000  0.0000  1.2045
$end

$rem
method ccsd
basis aug-cc-pcVTZ
CC_REF_PROP true
cc_fullresponse true
n_frozen_core 0
scf_convergence 8
scf_algorithm gdm
thresh 14
symmetry false
sym_ignore true
cc_memory 128000
mem_total 156000
mem_static  1500
internal_stability_iter 15
$end
--------------------------------------------------------------
 ----------------------------------------------------------------
             Standard Nuclear Orientation (Angstroms)
    I     Atom           X                Y                Z
 ----------------------------------------------------------------
    1      B       0.0000000000     0.0000000000     0.0000000000
    2      O       0.0000000000     0.0000000000     1.2045000000
 ----------------------------------------------------------------
 Nuclear Repulsion Energy =          17.57334033 hartrees
 There are        7 alpha and        6 beta electrons
 Requested basis set is aug-cc-pCVTZ
 There are 38 shells and 118 basis functions
 Total memory of 156000 MB is distributed as follows: 
   MEM_STATIC is set to 1500 MB
   QALLOC/CCMAN JOB total memory use is  154500 MB
 Warning: actual memory use might exceed 156000 MB

 Total QAlloc Memory Limit 156000 MB
 Mega-Array Size      1467 MB
 MEM_STATIC part      1500 MB

                       Distance Matrix (Angstroms)
             B (  1)
   O (  2)  1.204500

 A cutoff of  1.0D-14 yielded    735 shell pairs
 There are      7165 function pairs (      9864 Cartesian)
 Smallest overlap matrix eigenvalue = 1.94E-04

 Scale SEOQF with 1.000000e-01/1.000000e-01/1.000000e-01

 Standard Electronic Orientation quadrupole field applied
 Nucleus-field energy     =    -0.0000000012 hartrees
 Guess from superposition of atomic densities
 Warning:  Energy on first SCF cycle will be non-variational
 SAD guess density has 13.000000 electrons

 -----------------------------------------------------------------------
  General SCF calculation program by
  Eric Jon Sundstrom, Paul Horn, Yuezhi Mao, Dmitri Zuev, Alec White,
  David Stuck, Shaama M.S., Shane Yost, Joonho Lee, David Small,
  Daniel Levine, Susi Lehtola, Hugh Burton, Evgeny Epifanovsky,
  Bang C. Huynh
 -----------------------------------------------------------------------
 Hartree-Fock
Running Object-Oriented UKS (UHF)
performing a single roothaan step with Fock from read density so that orbitals are available to all algorithms
 using 24 threads for integral computing
 -------------------------------------------------------
 OpenMP Integral computing Module                
 Release: version 1.0, May 2013, Q-Chem Inc. Pittsburgh 
 -------------------------------------------------------
energy of the guess density (C=0) -99.539875068270
 using 24 threads for integral computing
 -------------------------------------------------------
 OpenMP Integral computing Module                
 Release: version 1.0, May 2013, Q-Chem Inc. Pittsburgh 
 -------------------------------------------------------
We will preform up to 15 macro iterations over saddle points until a stable solution is found
Energy prior to optimization (guess energy) = -99.440818087115
Begin Timing: Total SCF Calculation
Begin Timing: SCF Single Stationary Point Calculation
begin iterations for algorithm: GDM          
the SCF tolerance is set to 1.00e-08
    1     -99.4408180871      1.32e-01     00000  Descent step
    2     -99.5350880194      8.74e-02     00000  Normal BFGS step
    3     -99.5511596133      4.70e-02     00000  Normal BFGS step
    4     -99.5561157275      8.90e-03     00000  Normal BFGS step
    5     -99.5568850457      5.06e-03     00000  Normal BFGS step
    6     -99.5575507480      4.23e-03     00000  Normal BFGS step
    7     -99.5577273505      3.57e-03     00000  Normal BFGS step
    8     -99.5579124026      1.46e-03     00000  Normal BFGS step
    9     -99.5579328755      6.59e-04     00000  Normal BFGS step
   10     -99.5579358557      1.16e-04     00000  Normal BFGS step
   11     -99.5579359779      3.01e-05     00000  Normal BFGS step
   12     -99.5579359873      8.42e-06     00000  Normal BFGS step
   13     -99.5579359879      2.59e-06     00000  Normal BFGS step
   14     -99.5579359880      5.99e-07     00000  Normal BFGS step
   15     -99.5579359880      1.70e-07     00000  Normal BFGS step
   16     -99.5579359880      7.43e-08     00000  Normal BFGS step
   17     -99.5579359880      3.67e-08     00000  Normal BFGS step
   18     -99.5579359880      5.96e-09     00000 Convergence criterion met
Timing for Single Stationary Point: 3.00s (wall), 23.78s (cpu)
Begin Timing: Stability
===================================================
Beginning Test for Internal Stability
===================================================
generating davidson guess vectors based on koopmans excitations
    1      6.88e-01     00000 Davidson Iteration
    2      6.57e-01     00000 Davidson Iteration
    3      4.10e-01     00000 Davidson Iteration
    4      6.06e-02     00000 Davidson Iteration
    5      4.62e-02     00000 Davidson Iteration
    6      2.42e-02     00000 Davidson Iteration
    7      1.14e-02     00000 Davidson Iteration
    8      1.13e-02     00000 Davidson Iteration
    9      7.12e-03     00000 Davidson Iteration
   10      4.55e-03     00000 Davidson Iteration
   11      4.80e-03     00000 Davidson Iteration
   12      1.42e-03     00000 Davidson Iteration
   13      4.83e-04     00000 Davidson Iteration
   14      4.32e-04     00000 Davidson Iteration
   15      4.39e-04     00000 Davidson Iteration
   16      4.39e-04     00000 Davidson Iteration
   17      4.53e-04     00000 Davidson Iteration
   18      4.33e-04     00000 Davidson Iteration
   19      1.32e-04     00000 Davidson Iteration
   20      5.32e-05     00000 Davidson Iteration
   21      1.19e-04     00000 Davidson Iteration
   22      3.50e-05     00000 Davidson Converged
converged_eigenvalues
   0.2785
   0.2221
Threshold for negative eigenvalues: -1.0e-05
solution was a local minimum (stable)
===================================================
End Test for Internal Stability
===================================================
Timing for Internal Stability: 6.00s (wall), 66.44s (cpu)
Our SCF solution is stable!
Timing for Total SCF: 9.00s (wall), 90.22s (cpu)
 Total energy in the final basis set =      -99.5579359880
<S^2> =          0.799314453
    ==================================================
              The end of Object-Oriented SCFman       
    ==================================================


 ------------------------------------------------------------------------------

   CCMAN2: suite of methods based on coupled cluster
           and equation of motion theories.

   Components:
   * libvmm-1.3-trunk
     by Evgeny Epifanovsky, Ilya Kaliman.
   * libtensor-2.5-trunk
     by Evgeny Epifanovsky, Michael Wormit, Dmitry Zuev, Sam Manzer, 
        Ilya Kaliman.
   * libcc-2.5-trunk
     by Evgeny Epifanovsky, Arik Landau, Tomasz Kus, Kirill Khistyaev, 
        Dmitry Zuev, Prashant Manohar, Xintian Feng, Anna Krylov, 
        Matthew Goldey, Alec White, Thomas Jagau, Kaushik Nanda, 
        Anastasia Gunina, Alexander Kunitsa, Joonho Lee.

   CCMAN original authors:
   Anna I. Krylov, C. David Sherrill, Steven R. Gwaltney,
   Edward F. C. Byrd (2000)
   Sergey V. Levchenko, Lyudmila V. Slipchenko, Tao Wang,
   Ana-Maria C. Cristian (2003)
   Piotr A. Pieniazek, C. Melania Oana, Evgeny Epifanovsky (2007)
   Prashant Manohar (2009)

 ------------------------------------------------------------------------------


 Allocating and initializing 128000MB of RAM (this may take a while)...
 Calculation will run on 24 cores.


 Alpha MOs, Unrestricted
 -- Occupied --                  
-20.567  -7.699  -1.328  -0.652  -0.523  -0.510  -0.510
  1 A     2 A     3 A     4 A     5 A     6 A     7 A                          
 -- Virtual --                   
  0.039   0.041   0.041   0.059   0.109   0.109   0.158   0.182
  8 A     9 A    10 A    11 A    12 A    13 A    14 A    15 A                  
  0.182   0.197   0.210   0.210   0.244   0.244   0.276   0.318
 16 A    17 A    18 A    19 A    20 A    21 A    22 A    23 A                  
  0.395   0.395   0.493   0.620   0.620   0.649   0.649   0.655
 24 A    25 A    26 A    27 A    28 A    29 A    30 A    31 A                  
  0.657   0.657   0.667   0.667   0.754   0.855   0.855   0.883
 32 A    33 A    34 A    35 A    36 A    37 A    38 A    39 A                  
  0.904   0.904   0.965   0.965   1.009   1.181   1.181   1.290
 40 A    41 A    42 A    43 A    44 A    45 A    46 A    47 A                  
  1.712   1.833   1.871   1.871   1.952   1.952   1.985   1.985
 48 A    49 A    50 A    51 A    52 A    53 A    54 A    55 A                  
  2.055   2.092   2.092   2.093   2.093   2.234   2.234   2.270
 56 A    57 A    58 A    59 A    60 A    61 A    62 A    63 A                  
  2.270   2.480   2.480   2.570   2.654   2.736   2.736   2.849
 64 A    65 A    66 A    67 A    68 A    69 A    70 A    71 A                  
  2.849   3.176   3.508   3.508   3.696   4.574   4.574   5.415
 72 A    73 A    74 A    75 A    76 A    77 A    78 A    79 A                  
  6.016   6.544   6.544   6.662   6.662   6.790   6.790   7.165
 80 A    81 A    82 A    83 A    84 A    85 A    86 A    87 A                  
  7.165   7.221   7.458   7.458   7.685  10.889  10.889  11.503
 88 A    89 A    90 A    91 A    92 A    93 A    94 A    95 A                  
 13.037  26.322  26.322  27.336  29.200  37.217  37.217  37.303
 96 A    97 A    98 A    99 A   100 A   101 A   102 A   103 A                  
 37.303  37.374  43.964  43.964  44.084  44.084  44.163  56.321
104 A   105 A   106 A   107 A   108 A   109 A   110 A   111 A                  
 56.321  57.576  60.875 138.437 138.437 139.218 149.973
112 A   113 A   114 A   115 A   116 A   117 A   118 A                          

 Beta MOs, Unrestricted
 -- Occupied --                  
-20.578  -7.665  -1.348  -0.639  -0.548  -0.548
  1 A     2 A     3 A     4 A     5 A     6 A                                  
 -- Virtual --                   
 -0.022   0.043   0.043   0.052   0.075   0.147   0.147   0.170
  7 A     8 A     9 A    10 A    11 A    12 A    13 A    14 A                  
  0.186   0.186   0.209   0.209   0.209   0.258   0.258   0.306
 15 A    16 A    17 A    18 A    19 A    20 A    21 A    22 A                  
  0.324   0.428   0.428   0.557   0.645   0.645   0.657   0.657
 23 A    24 A    25 A    26 A    27 A    28 A    29 A    30 A                  
  0.664   0.664   0.688   0.692   0.692   0.771   0.853   0.853
 31 A    32 A    33 A    34 A    35 A    36 A    37 A    38 A                  
  0.894   0.913   0.913   0.967   0.967   1.007   1.183   1.183
 39 A    40 A    41 A    42 A    43 A    44 A    45 A    46 A                  
  1.320   1.738   1.869   1.896   1.896   1.958   1.958   2.025
 47 A    48 A    49 A    50 A    51 A    52 A    53 A    54 A                  
  2.025   2.099   2.099   2.105   2.136   2.136   2.250   2.250
 55 A    56 A    57 A    58 A    59 A    60 A    61 A    62 A                  
  2.285   2.285   2.474   2.474   2.578   2.671   2.747   2.747
 63 A    64 A    65 A    66 A    67 A    68 A    69 A    70 A                  
  2.857   2.857   3.198   3.510   3.510   3.707   4.560   4.560
 71 A    72 A    73 A    74 A    75 A    76 A    77 A    78 A                  
  5.419   6.011   6.529   6.529   6.653   6.653   6.787   6.787
 79 A    80 A    81 A    82 A    83 A    84 A    85 A    86 A                  
  7.138   7.138   7.221   7.448   7.448   7.679  10.901  10.901
 87 A    88 A    89 A    90 A    91 A    92 A    93 A    94 A                  
 11.531  13.049  26.311  26.311  27.335  29.194  37.221  37.221
 95 A    96 A    97 A    98 A    99 A   100 A   101 A   102 A                  
 37.310  37.310  37.382  43.953  43.953  44.079  44.079  44.159
103 A   104 A   105 A   106 A   107 A   108 A   109 A   110 A                  
 56.331  56.331  57.588  60.888 138.434 138.434 139.218 149.971
111 A   112 A   113 A   114 A   115 A   116 A   117 A   118 A                  

 Occupation and symmetry of molecular orbitals

 Point group: C1 (1 irreducible representation).

                           A     All 
 -------------------------------------
 All molecular orbitals:
  - Alpha                  118   118 
  - Beta                   118   118 
 -------------------------------------
 Alpha orbitals:
  - Frozen occupied        0     0   
  - Active occupied        7     7   
  - Active virtual         111   111 
  - Frozen virtual         0     0   
 -------------------------------------
 Beta orbitals:
  - Frozen occupied        0     0   
  - Active occupied        6     6   
  - Active virtual         112   112 
  - Frozen virtual         0     0   
 -------------------------------------

 Import integrals:   CPU 0.00 s  wall 0.00 s

 Import integrals:   CPU 69.07 s  wall 4.86 s

 MP2 amplitudes:   CPU 0.33 s  wall 0.04 s

Running a double precision version
           CCSD T amplitudes will be solved using DIIS.

           Start     Size      MaxIter   EConv     TConv     
           3         7         100       1.00e-06  1.00e-04  
 ------------------------------------------------------------------------------
           Energy (a.u.)   Ediff      Tdiff       Comment
 ------------------------------------------------------------------------------
           -99.96154684                           
     1     -99.95034430   1.12e-02   4.74e-01     
     2     -99.96331120   1.30e-02   6.75e-02     
     3     -99.96198853   1.32e-03   3.19e-02     
     4     -99.96358222   1.59e-03   1.20e-02     Switched to DIIS steps.
     5     -99.96467743   1.10e-03   1.17e-02     
     6     -99.96489086   2.13e-04   3.55e-03     
     7     -99.96497798   8.71e-05   2.52e-03     
     8     -99.96499978   2.18e-05   6.12e-04     
     9     -99.96500375   3.96e-06   2.37e-04     
    10     -99.96500276   9.93e-07   4.59e-05     
 ------------------------------------------------------------------------------
           -99.96500276                           CCSD T converged.

End of double precision
 SCF energy                 = -99.55793599
 MP2 energy                 = -99.96154684
 CCSD correlation energy    =  -0.40706677
 CCSD total energy          = -99.96500276

 CCSD  T1^2 = 0.0147  T2^2 = 0.0981  Leading amplitudes:

 Amplitude    Orbitals with energies
  0.0477       4 (A) B                   ->    7 (A) B                    
              -0.6391                         -0.0224                     
 -0.0454       5 (A) B                   ->    12 (A) B                   
              -0.5482                          0.1470                     
  0.0454       6 (A) B                   ->    13 (A) B                   
              -0.5482                          0.1470                     
 -0.0367       5 (A) B                   ->    20 (A) B                   
              -0.5482                          0.2585                     
  0.0367       6 (A) B                   ->    21 (A) B                   
              -0.5482                          0.2585                     

 Amplitude    Orbitals with energies
  0.0309       7 (A) A       5 (A) B     ->    12 (A) A      20 (A) B     
              -0.5101       -0.5482            0.1092        0.2585       
 -0.0309       7 (A) A       5 (A) B     ->    20 (A) B      12 (A) A     
              -0.5101       -0.5482            0.2585        0.1092       
 -0.0309       5 (A) B       7 (A) A     ->    12 (A) A      20 (A) B     
              -0.5482       -0.5101            0.1092        0.2585       
  0.0309       5 (A) B       7 (A) A     ->    20 (A) B      12 (A) A     
              -0.5482       -0.5101            0.2585        0.1092       
 -0.0309       6 (A) A       6 (A) B     ->    13 (A) A      21 (A) B     
              -0.5101       -0.5482            0.1092        0.2585       
  0.0309       6 (A) A       6 (A) B     ->    21 (A) B      13 (A) A     
              -0.5101       -0.5482            0.2585        0.1092       
  0.0309       6 (A) B       6 (A) A     ->    13 (A) A      21 (A) B     
              -0.5482       -0.5101            0.1092        0.2585       
 -0.0309       6 (A) B       6 (A) A     ->    21 (A) B      13 (A) A     
              -0.5482       -0.5101            0.2585        0.1092       

 Computing CCSD intermediates for later calculations in double precision
 Finished.

Running a double precision version
           CCSD Lambda amplitudes will be solved using DIIS.
           Start     Size      MaxIter   EConv     LConv     
           3         7         100       1.00e-06  1.00e-04  
 ------------------------------------------------------------------------------
            Enorm      Ldiff       Comment
 ------------------------------------------------------------------------------
     1     4.86e-02   1.81e-02     
     2     2.18e-02   1.06e-02     
     3     9.60e-03   1.08e-03     
     4     4.08e-03   2.10e-03     Switched to DIIS steps.
     5     1.00e-03   1.06e-03     
     6     6.02e-04   1.77e-04     
     7     2.24e-04   1.47e-04     
     8     1.24e-04   4.20e-05     
     9     4.31e-05   1.99e-05     
    10     2.34e-05   7.07e-06     
    11     1.02e-05   4.21e-06     
    12     4.38e-06   1.72e-06     
    13     1.45e-06   5.08e-07     
    14     6.18e-07   6.88e-08     
 ------------------------------------------------------------------------------
                                   CCSD Lambda converged.

 Computing density matrices in double precision...
           Orbital response amplitudes will be solved using DIIS.
           Start     Size      MaxIter   EConv     LConv     
           3         7         100       1.00e-06  1.00e-06  
 ------------------------------------------------------------------------------
            Enorm      Ldiff       Comment
 ------------------------------------------------------------------------------
     1     6.82e-02   2.09e-02     
     2     6.21e-02   2.37e-02     
     3     8.61e-02   4.56e-02     
     4     3.80e-03   4.85e-02     Switched to DIIS steps.
     5     4.01e-04   1.30e-03     
     6     9.81e-05   1.39e-04     
     7     4.80e-05   2.55e-05     
     8     3.03e-05   2.20e-07     
     9     1.18e-05   1.82e-07     
    10     2.44e-06   4.19e-06     
    11     3.74e-07   1.92e-07     
 ------------------------------------------------------------------------------
                                   Orbital response converged.

 Computing density matrices... Done.
 Reference state properties
 Relaxed dipole moment (a.u.): 0.945401 (X 0.000000, Y 0.000000, Z -0.945401)
 Relaxed R-squared (a.u.): 67.263719 (XX 7.753851, YY 7.753851, ZZ 51.756017)
 Gauge origin (a.u.): (0.000000, 0.000000, 0.000000)
 Relaxed angular momentum (a.u.) against gauge origin: 
 (X 0.000000i, Y 0.000000i, Z 0.000000i)
 Traces of the OPDMs: AA 7.000000, BB 6.000000
 Relaxed density matrix was written to a file for further analysis.

 CCSD calculation:   CPU 1339.65 s  wall 75.09 s

 Total ccman2 time:   CPU 1448.49 s  wall 83.03 s


 --------------------------------------------------------------

                    Orbital Energies (a.u.)
 --------------------------------------------------------------

 Alpha MOs
 -- Occupied --
-20.5675  -7.6986  -1.3277  -0.6522  -0.5226  -0.5101  -0.5101
 -- Virtual --
  0.0394   0.0408   0.0408   0.0593   0.1092   0.1092   0.1582   0.1822
  0.1822   0.1974   0.2097   0.2097   0.2438   0.2438   0.2764   0.3181
  0.3950   0.3950   0.4930   0.6195   0.6195   0.6488   0.6488   0.6548
  0.6573   0.6573   0.6670   0.6670   0.7542   0.8549   0.8549   0.8831
  0.9037   0.9037   0.9647   0.9647   1.0085   1.1805   1.1805   1.2900
  1.7119   1.8330   1.8714   1.8714   1.9524   1.9524   1.9847   1.9847
  2.0552   2.0921   2.0921   2.0934   2.0934   2.2340   2.2340   2.2701
  2.2701   2.4799   2.4799   2.5705   2.6543   2.7360   2.7360   2.8489
  2.8489   3.1765   3.5080   3.5080   3.6965   4.5741   4.5741   5.4154
  6.0162   6.5442   6.5442   6.6617   6.6617   6.7898   6.7898   7.1647
  7.1647   7.2211   7.4580   7.4580   7.6847  10.8890  10.8890  11.5030
 13.0373  26.3224  26.3224  27.3365  29.1996  37.2168  37.2168  37.3032
 37.3032  37.3741  43.9641  43.9641  44.0841  44.0841  44.1628  56.3212
 56.3212  57.5763  60.8749 138.4372 138.4372 139.2181 149.9731

 Beta MOs
 -- Occupied --
-20.5779  -7.6653  -1.3483  -0.6391  -0.5482  -0.5482
 -- Virtual --
 -0.0224   0.0433   0.0433   0.0517   0.0749   0.1470   0.1470   0.1695
  0.1860   0.1860   0.2089   0.2093   0.2093   0.2585   0.2585   0.3061
  0.3240   0.4285   0.4285   0.5571   0.6449   0.6449   0.6570   0.6570
  0.6640   0.6640   0.6879   0.6917   0.6917   0.7715   0.8532   0.8532
  0.8942   0.9130   0.9130   0.9666   0.9666   1.0072   1.1831   1.1831
  1.3198   1.7383   1.8689   1.8955   1.8955   1.9584   1.9584   2.0251
  2.0251   2.0993   2.0993   2.1053   2.1358   2.1358   2.2502   2.2502
  2.2850   2.2850   2.4744   2.4744   2.5778   2.6713   2.7469   2.7469
  2.8574   2.8574   3.1977   3.5099   3.5099   3.7067   4.5604   4.5604
  5.4188   6.0106   6.5295   6.5295   6.6534   6.6534   6.7866   6.7866
  7.1380   7.1380   7.2211   7.4477   7.4477   7.6785  10.9009  10.9009
 11.5313  13.0492  26.3107  26.3107  27.3350  29.1938  37.2209  37.2209
 37.3099  37.3099  37.3816  43.9526  43.9526  44.0787  44.0787  44.1594
 56.3312  56.3312  57.5879  60.8883 138.4344 138.4344 139.2175 149.9712
 --------------------------------------------------------------

          Ground-State Mulliken Net Atomic Charges

     Atom                 Charge (a.u.)    Spin (a.u.)
  --------------------------------------------------------
      1 B                     0.395422       1.083316
      2 O                    -0.395422      -0.083316
  --------------------------------------------------------
  Sum of atomic charges =     0.000000
  Sum of spin   charges =     1.000000

 -----------------------------------------------------------------
                    Cartesian Multipole Moments
 -----------------------------------------------------------------
    Charge (ESU x 10^10)
                -0.0000
    Dipole Moment (Debye)
         X       0.0000      Y       0.0000      Z      -2.4030
       Tot       2.4030
    Quadrupole Moments (Debye-Ang)
        XX     -10.4292     XY       0.0000     YY     -10.4292
        XZ      -0.0000     YZ       0.0000     ZZ     -13.8649
    Octopole Moments (Debye-Ang^2)
       XXX       0.0000    XXY      -0.0000    XYY       0.0000
       YYY      -0.0000    XXZ      -6.8508    XYZ       0.0000
       YYZ      -6.8508    XZZ      -0.0000    YZZ       0.0000
       ZZZ     -22.9383
    Hexadecapole Moments (Debye-Ang^3)
      XXXX     -11.0892   XXXY       0.0000   XXYY      -3.6964
      XYYY       0.0000   YYYY     -11.0892   XXXZ       0.0000
      XXYZ       0.0000   XYYZ       0.0000   YYYZ       0.0000
      XXZZ     -12.2015   XYZZ       0.0000   YYZZ     -12.2015
      XZZZ      -0.0000   YZZZ       0.0000   ZZZZ     -65.6997
 -----------------------------------------------------------------
Archival summary:
1\1\n0013.cm1\SP\ProcedureUnspecified\BasisUnspecified\11(2)\diptarka\WedNov421:51:022020WedNov421:51:022020\0\\#,ProcedureUnspecified,BasisUnspecified,\\0,2\B\O,1,1.2045\\HF=-99.557936\\@

 Total job time:  151.25s(wall), 1599.25s(cpu) 
 Wed Nov  4 21:51:02 2020

        *************************************************************
        *                                                           *
        *  Thank you very much for using Q-Chem.  Have a nice day.  *
        *                                                           *
        *************************************************************


