Q-Chem Developer Version!
                  Welcome to Q-Chem
     A Quantum Leap Into The Future Of Chemistry


 Q-Chem 5.1, Q-Chem, Inc., Pleasanton, CA (2018)

 Yihan Shao,  Zhengting Gan,  E. Epifanovsky,  A. T. B. Gilbert,  M. Wormit,  
 J. Kussmann,  A. W. Lange,  A. Behn,  Jia Deng,  Xintian Feng,  D. Ghosh,  
 M. Goldey,  P. R. Horn,  L. D. Jacobson,  I. Kaliman,  T. Kus,  A. Landau,  
 Jie Liu,  E. I. Proynov,  R. M. Richard,  R. P. Steele,  E. J. Sundstrom,  
 H. L. Woodcock III,  P. M. Zimmerman,  D. Zuev,  B. Albrecht,  E. Alguire,  
 S. A. Baeppler,  D. Barton,  Z. Benda,  Y. A. Bernard,  E. J. Berquist,  
 K. B. Bravaya,  H. Burton,  D. Casanova,  Chun-Min Chang,  Yunqing Chen,  
 A. Chien,  K. D. Closser,  M. P. Coons,  S. Coriani,  S. Dasgupta,  
 A. L. Dempwolff,  M. Diedenhofen,  Hainam Do,  R. G. Edgar,  Po-Tung Fang,  
 S. Faraji,  S. Fatehi,  Qingguo Feng,  K. D. Fenk,  J. Fosso-Tande,  
 Qinghui Ge,  A. Ghysels,  G. Gidofalvi,  J. Gomes,  J. Gonthier,  A. Gunina,  
 D. Hait,  M. W. D. Hanson-Heine,  P. H. P. Harbach,  A. W. Hauser,  
 J. E. Herr,  E. G. Hohenstein,  Z. C. Holden,  Kerwin Hui,  B. C. Huynh,  
 T.-C. Jagau,  Hyunjun Ji,  B. Kaduk,  K. Khistyaev,  Jaehoon Kim,  
 P. Klunzinger,  K. Koh,  D. Kosenkov,  L. Koulias,  T. Kowalczyk,  
 C. M. Krauter,  A. Kunitsa,  Ka Un Lao,  A. Laurent,  K. V. Lawler,  
 Joonho Lee,  D. Lefrancois,  S. Lehtola,  D. S. Levine,  Yi-Pei Li,  
 You-Sheng Lin,  Fenglai Liu,  E. Livshits,  A. Luenser,  P. Manohar,  
 E. Mansoor,  S. F. Manzer,  Shan-Ping Mao,  Yuezhi Mao,  N. Mardirossian,  
 A. V. Marenich,  T. Markovich,  L. A. Martinez-Martinez,  S. A. Maurer,  
 N. J. Mayhall,  S. C. McKenzie,  J.-M. Mewes,  A. F. Morrison,  
 J. W. Mullinax,  K. Nanda,  T. S. Nguyen-Beck,  R. Olivares-Amaya,  
 J. A. Parkhill,  T. M. Perrine,  F. Plasser,  P. Pokhilko,  S. Prager,  
 A. Prociuk,  E. Ramos,  D. R. Rehn,  F. Rob,  M. Schneider,  N. Sergueev,  
 S. M. Sharada,  S. Sharma,  D. W. Small,  T. Stauch,  T. Stein,  
 Yu-Chuan Su,  A. J. W. Thom,  A. Tkatchenko,  T. Tsuchimochi,  N. M. Tubman,  
 L. Vogt,  M. L. Vidal,  O. Vydrov,  M. A. Watson,  J. Wenzel,  
 M. de Wergifosse,  T. A. Wesolowski,  A. White,  J. Witte,  A. Yamada,  
 Jun Yang,  K. Yao,  S. Yeganeh,  S. R. Yost,  Zhi-Qiang You,  A. Zech,  
 Igor Ying Zhang,  Xing Zhang,  Yan Zhao,  Ying Zhu,  B. R. Brooks,  
 G. K. L. Chan,  C. J. Cramer,  M. S. Gordon,  W. J. Hehre,  A. Klamt,  
 M. W. Schmidt,  C. D. Sherrill,  D. G. Truhlar,  A. Aspuru-Guzik,  R. Baer,  
 A. T. Bell,  N. A. Besley,  Jeng-Da Chai,  A. E. DePrince, III,  
 R. A. DiStasio Jr.,  A. Dreuw,  B. D. Dunietz,  T. R. Furlani,  
 Chao-Ping Hsu,  Yousung Jung,  Jing Kong,  D. S. Lambrecht,  WanZhen Liang,  
 C. Ochsenfeld,  V. A. Rassolov,  L. V. Slipchenko,  J. E. Subotnik,  
 T. Van Voorhis,  J. M. Herbert,  A. I. Krylov,  P. M. W. Gill,  M. Head-Gordon

 Contributors to earlier versions of Q-Chem not listed above: 
 R. D. Adamson,  B. Austin,  J. Baker,  G. J. O. Beran,  K. Brandhorst,  
 S. T. Brown,  E. F. C. Byrd,  A. K. Chakraborty,  C.-L. Cheng,  
 Siu Hung Chien,  D. M. Chipman,  D. L. Crittenden,  H. Dachsel,  
 R. J. Doerksen,  A. D. Dutoi,  L. Fusti-Molnar,  W. A. Goddard III,  
 A. Golubeva-Zadorozhnaya,  S. R. Gwaltney,  G. Hawkins,  A. Heyden,  
 S. Hirata,  G. Kedziora,  F. J. Keil,  C. Kelley,  Jihan Kim,  R. A. King,  
 R. Z. Khaliullin,  P. P. Korambath,  W. Kurlancheek,  A. M. Lee,  M. S. Lee,  
 S. V. Levchenko,  Ching Yeh Lin,  D. Liotard,  R. C. Lochan,  I. Lotan,  
 P. E. Maslen,  N. Nair,  D. P. O'Neill,  D. Neuhauser,  E. Neuscamman,  
 C. M. Oana,  R. Olson,  B. Peters,  R. Peverati,  P. A. Pieniazek,  
 Y. M. Rhee,  J. Ritchie,  M. A. Rohrdanz,  E. Rosta,  N. J. Russ,  
 H. F. Schaefer III,  N. E. Schultz,  N. Shenvi,  A. C. Simmonett,  A. Sodt,  
 D. Stuck,  K. S. Thanthiriwatte,  V. Vanovschi,  Tao Wang,  A. Warshel,  
 C. F. Williams,  Q. Wu,  X. Xu,  W. Zhang

 Please cite Q-Chem as follows:
 Y. Shao et al., Mol. Phys. 113, 184-215 (2015)
 DOI: 10.1080/00268976.2014.952696

 Q-Chem 5.1.1 for Intel X86 EM64T Linux

 Parts of Q-Chem use Armadillo 8.300.2 (Tropical Shenanigans).
 http://arma.sourceforge.net/

 Q-Chem begins on Mon Oct 26 15:33:44 2020  

Host: n0086.mhg0
0

     Scratch files written to /local/scratch/users/yhljason/HCHS_ccsd_aug-cc-pcVTZ.inp20201026153341//
Input Ideriv = 1
Curr. Ideriv = -1
Max.  Ideriv = 1

Checking the input file for inconsistencies... 	...done.

--------------------------------------------------------------
User input:
--------------------------------------------------------------
$molecule
0 1
S1      0.0000  0.0000  0.5846
C2      0.0000  0.0000  -1.0262
H3      0.0000  0.9244  -1.5980
H4      0.0000  -0.9244 -1.5980
$end

$rem
method ccsd
basis aug-cc-pcVTZ
CC_REF_PROP true
cc_fullresponse true
n_frozen_core 0
scf_convergence 8
scf_algorithm gdm
thresh 14
symmetry false
sym_ignore true
$end
--------------------------------------------------------------
 ----------------------------------------------------------------
             Standard Nuclear Orientation (Angstroms)
    I     Atom           X                Y                Z
 ----------------------------------------------------------------
    1      S       0.0000000000     0.0000000000     0.5846000000
    2      C       0.0000000000     0.0000000000    -1.0262000000
    3      H       0.0000000000     0.9244000000    -1.5980000000
    4      H       0.0000000000    -0.9244000000    -1.5980000000
 ----------------------------------------------------------------
 Nuclear Repulsion Energy =    44.8102513215 hartrees
 There are       12 alpha and       12 beta electrons
 Requested basis set is aug-cc-pCVTZ
 There are 60 shells and 180 basis functions
 Total memory of 2000MB is distributed as follows: 
   QALLOC including MEM_STATIC uses 192MB
   MEM_STATIC is set to 192MB
   CCMAN JOB total memory use is  1808MB
 Warning: actual memory use might exceed 2000MB

 Total QAlloc Memory Limit    192 MB
 Mega-Array Size       188 MB
 MEM_STATIC part       192 MB

                       Distance Matrix (Angstroms)
             S (  1)   C (  2)   H (  3)
   C (  2)  1.610800
   H (  3)  2.370287  1.086955
   H (  4)  2.370287  1.086955  1.848800
 
 A cutoff of  1.0D-14 yielded   1814 shell pairs
 There are     16390 function pairs (     21953 Cartesian)
 
 -------------------------------------------------------
 OpenMP Integral Computing Module                       
 Release: version 1.0, May 2013, Q-Chem Inc. Pittsburgh 
 -------------------------------------------------------
 Integral Job Info:
 Integral job number is                      11
 Integral operator is                         1
 short-range coefficients                     0
 long-range coefficients              100000000
 Omega coefficients                           0
 if combine SR and LR in K                    0
 Integral screening is                        0
 Integral computing path is                   2
 max size of driver memory is            800000
 size of driver memory is                776718
 size of scratch memory is             29531563
 max col of scratch BK array              10000
 max len of scratch array in speh3          662
 max len of scratch index in speh4           32
 max int batch size is                      520
 min int batch size is                       52
 fixed nKL is                                31
 max L of basis functions is                  3
 order of int derivative is                   0
 number of shells is                         60
 number of basis is                         208
 number of cartesian basis is               208
 number of contracted shell pairs          1814
 number of primitive shell pairs           7476
 maxK2 (contraction) of shell pair          169
 max number of K2 of shell pair               1
 max number of CS2 of shell pair            257
 max number of PS2 of shell pair           1014
 mem total for path MDJ                  579280
 -------------------------------------------------------
 Smallest overlap matrix eigenvalue = 8.05E-05

 Scale SEOQF with 1.000000e-01/1.000000e-01/1.000000e-01

 Standard Electronic Orientation quadrupole field applied
 Nucleus-field energy     =    -0.0000000017 hartrees
 Guess from superposition of atomic densities
 Warning:  Energy on first SCF cycle will be non-variational
 SAD guess density has 24.000000 electrons

 -----------------------------------------------------------------------
  General SCF calculation program by
  Eric Jon Sundstrom, Paul Horn, Yuezhi Mao, Dmitri Zuev, Alec White,
  David Stuck, Shaama M.S., Shane Yost, Joonho Lee, David Small,
  Daniel Levine, Susi Lehtola, Hugh Burton, Evgeny Epifanovsky
 -----------------------------------------------------------------------
 Hartree-Fock
 using 8 threads for integral computing
 -------------------------------------------------------
 OpenMP Integral computing Module                
 Release: version 2.0, May 2017, Q-Chem Inc. Pleasanton 
 -------------------------------------------------------
 A restricted SCF calculation will be
 performed using Roothaan-Hall, GDM
 SCF converges when RMS gradient is below 1.0e-08
 ---------------------------------------
  Cycle       Energy         DIIS error
 ---------------------------------------
    1    -436.7846411130      2.39e-02  Roothaan Step
 ---------------------------------------
  Cycle       Energy        RMS Gradient
 ---------------------------------------
    1    -436.5243060397      1.10e-01   Normal BFGS step
    2    -436.5462891544      6.18e-02   Normal BFGS step
    3    -436.5595308679      6.18e-03   Normal BFGS step
    4    -436.5598262035      2.06e-03   Normal BFGS step
    5    -436.5598640336      8.87e-04   Normal BFGS step
    6    -436.5598669849      3.26e-04   Normal BFGS step
    7    -436.5598675703      8.97e-05   Normal BFGS step
    8    -436.5598676305      4.16e-05   Normal BFGS step
    9    -436.5598676430      6.09e-06   Normal BFGS step
   10    -436.5598676437      1.73e-06   Normal BFGS step
   11    -436.5598676437      4.19e-07   Normal BFGS step
   12    -436.5598676437      8.92e-08   Normal BFGS step
   13    -436.5598676437      1.27e-08   Normal BFGS step
   14    -436.5598676437      4.25e-09  Convergence criterion met
 ---------------------------------------
 SCF time:   CPU 476.12s  wall 60.00s 
 SCF   energy in the final basis set =     -436.5598676437
 Total energy in the final basis set =     -436.5598676437


 ------------------------------------------------------------------------------

   CCMAN2: suite of methods based on coupled cluster
           and equation of motion theories.

   Components:
   * libvmm-1.3-trunk
     by Evgeny Epifanovsky, Ilya Kaliman.
   * libtensor-2.5-trunk
     by Evgeny Epifanovsky, Michael Wormit, Dmitry Zuev, Sam Manzer, 
        Ilya Kaliman.
   * libcc-2.5-trunk
     by Evgeny Epifanovsky, Arik Landau, Tomasz Kus, Kirill Khistyaev, 
        Dmitry Zuev, Prashant Manohar, Xintian Feng, Anna Krylov, 
        Matthew Goldey, Alec White, Thomas Jagau, Kaushik Nanda, 
        Anastasia Gunina, Alexander Kunitsa, Joonho Lee.

   CCMAN original authors:
   Anna I. Krylov, C. David Sherrill, Steven R. Gwaltney,
   Edward F. C. Byrd (2000)
   Sergey V. Levchenko, Lyudmila V. Slipchenko, Tao Wang,
   Ana-Maria C. Cristian (2003)
   Piotr A. Pieniazek, C. Melania Oana, Evgeny Epifanovsky (2007)
   Prashant Manohar (2009)

 ------------------------------------------------------------------------------


 Allocating and initializing 1808MB of RAM...
 Calculation will run on 8 cores.

 
 Alpha MOs, Restricted
 -- Occupied --                  
-91.955 -11.319  -8.957  -6.638  -6.638  -6.636  -1.065  -0.813
  1 A     2 A     3 A     4 A     5 A     6 A     7 A     8 A                  
 -0.645  -0.542  -0.419  -0.352
  9 A    10 A    11 A    12 A                                                  
 -- Virtual --                   
  0.029   0.036   0.043   0.061   0.092   0.104   0.116   0.131
 13 A    14 A    15 A    16 A    17 A    18 A    19 A    20 A                  
  0.135   0.148   0.198   0.216   0.230   0.243   0.269   0.289
 21 A    22 A    23 A    24 A    25 A    26 A    27 A    28 A                  
  0.309   0.316   0.324   0.344   0.375   0.382   0.385   0.402
 29 A    30 A    31 A    32 A    33 A    34 A    35 A    36 A                  
  0.413   0.428   0.446   0.451   0.472   0.476   0.561   0.619
 37 A    38 A    39 A    40 A    41 A    42 A    43 A    44 A                  
  0.637   0.655   0.677   0.732   0.739   0.754   0.788   0.803
 45 A    46 A    47 A    48 A    49 A    50 A    51 A    52 A                  
  0.832   0.836   0.851   0.872   0.878   0.881   0.893   0.958
 53 A    54 A    55 A    56 A    57 A    58 A    59 A    60 A                  
  0.962   0.969   0.972   0.994   1.020   1.068   1.086   1.105
 61 A    62 A    63 A    64 A    65 A    66 A    67 A    68 A                  
  1.108   1.127   1.129   1.167   1.208   1.293   1.339   1.391
 69 A    70 A    71 A    72 A    73 A    74 A    75 A    76 A                  
  1.468   1.497   1.526   1.549   1.571   1.572   1.586   1.647
 77 A    78 A    79 A    80 A    81 A    82 A    83 A    84 A                  
  1.787   1.801   1.880   1.949   1.967   1.989   1.999   2.027
 85 A    86 A    87 A    88 A    89 A    90 A    91 A    92 A                  
  2.039   2.043   2.061   2.283   2.289   2.316   2.391   2.408
 93 A    94 A    95 A    96 A    97 A    98 A    99 A   100 A                  
  2.460   2.504   2.544   2.667   2.674   2.844   2.951   2.979
101 A   102 A   103 A   104 A   105 A   106 A   107 A   108 A                  
  3.099   3.114   3.192   3.235   3.456   3.510   3.529   3.642
109 A   110 A   111 A   112 A   113 A   114 A   115 A   116 A                  
  3.672   3.735   3.785   3.817   3.842   3.865   3.936   4.054
117 A   118 A   119 A   120 A   121 A   122 A   123 A   124 A                  
  4.056   4.231   4.247   4.411   4.447   4.673   4.685   4.735
125 A   126 A   127 A   128 A   129 A   130 A   131 A   132 A                  
  4.804   5.067   5.121   5.228   5.247   5.262   5.809   5.822
133 A   134 A   135 A   136 A   137 A   138 A   139 A   140 A                  
  6.426   6.509   8.800   8.808   8.855   9.028   9.412  11.096
141 A   142 A   143 A   144 A   145 A   146 A   147 A   148 A                  
 11.314  11.644  15.305  15.669  16.646  16.693  17.498  31.946
149 A   150 A   151 A   152 A   153 A   154 A   155 A   156 A                  
 31.947  31.949  31.950  31.955  31.967  31.968  39.598  39.602
157 A   158 A   159 A   160 A   161 A   162 A   163 A   164 A                  
 39.625  39.702  39.923  41.485  41.488  41.561  41.703  41.746
165 A   166 A   167 A   168 A   169 A   170 A   171 A   172 A                  
 47.463  47.702  48.064  81.245  81.961  81.988  86.913  87.430
173 A   174 A   175 A   176 A   177 A   178 A   179 A   180 A                  
 
 Beta MOs, Restricted
 -- Occupied --                  
-91.955 -11.319  -8.957  -6.638  -6.638  -6.636  -1.065  -0.813
  1 A     2 A     3 A     4 A     5 A     6 A     7 A     8 A                  
 -0.645  -0.542  -0.419  -0.352
  9 A    10 A    11 A    12 A                                                  
 -- Virtual --                   
  0.029   0.036   0.043   0.061   0.092   0.104   0.116   0.131
 13 A    14 A    15 A    16 A    17 A    18 A    19 A    20 A                  
  0.135   0.148   0.198   0.216   0.230   0.243   0.269   0.289
 21 A    22 A    23 A    24 A    25 A    26 A    27 A    28 A                  
  0.309   0.316   0.324   0.344   0.375   0.382   0.385   0.402
 29 A    30 A    31 A    32 A    33 A    34 A    35 A    36 A                  
  0.413   0.428   0.446   0.451   0.472   0.476   0.561   0.619
 37 A    38 A    39 A    40 A    41 A    42 A    43 A    44 A                  
  0.637   0.655   0.677   0.732   0.739   0.754   0.788   0.803
 45 A    46 A    47 A    48 A    49 A    50 A    51 A    52 A                  
  0.832   0.836   0.851   0.872   0.878   0.881   0.893   0.958
 53 A    54 A    55 A    56 A    57 A    58 A    59 A    60 A                  
  0.962   0.969   0.972   0.994   1.020   1.068   1.086   1.105
 61 A    62 A    63 A    64 A    65 A    66 A    67 A    68 A                  
  1.108   1.127   1.129   1.167   1.208   1.293   1.339   1.391
 69 A    70 A    71 A    72 A    73 A    74 A    75 A    76 A                  
  1.468   1.497   1.526   1.549   1.571   1.572   1.586   1.647
 77 A    78 A    79 A    80 A    81 A    82 A    83 A    84 A                  
  1.787   1.801   1.880   1.949   1.967   1.989   1.999   2.027
 85 A    86 A    87 A    88 A    89 A    90 A    91 A    92 A                  
  2.039   2.043   2.061   2.283   2.289   2.316   2.391   2.408
 93 A    94 A    95 A    96 A    97 A    98 A    99 A   100 A                  
  2.460   2.504   2.544   2.667   2.674   2.844   2.951   2.979
101 A   102 A   103 A   104 A   105 A   106 A   107 A   108 A                  
  3.099   3.114   3.192   3.235   3.456   3.510   3.529   3.642
109 A   110 A   111 A   112 A   113 A   114 A   115 A   116 A                  
  3.672   3.735   3.785   3.817   3.842   3.865   3.936   4.054
117 A   118 A   119 A   120 A   121 A   122 A   123 A   124 A                  
  4.056   4.231   4.247   4.411   4.447   4.673   4.685   4.735
125 A   126 A   127 A   128 A   129 A   130 A   131 A   132 A                  
  4.804   5.067   5.121   5.228   5.247   5.262   5.809   5.822
133 A   134 A   135 A   136 A   137 A   138 A   139 A   140 A                  
  6.426   6.509   8.800   8.808   8.855   9.028   9.412  11.096
141 A   142 A   143 A   144 A   145 A   146 A   147 A   148 A                  
 11.314  11.644  15.305  15.669  16.646  16.693  17.498  31.946
149 A   150 A   151 A   152 A   153 A   154 A   155 A   156 A                  
 31.947  31.949  31.950  31.955  31.967  31.968  39.598  39.602
157 A   158 A   159 A   160 A   161 A   162 A   163 A   164 A                  
 39.625  39.702  39.923  41.485  41.488  41.561  41.703  41.746
165 A   166 A   167 A   168 A   169 A   170 A   171 A   172 A                  
 47.463  47.702  48.064  81.245  81.961  81.988  86.913  87.430
173 A   174 A   175 A   176 A   177 A   178 A   179 A   180 A                  

 Occupation and symmetry of molecular orbitals

 Point group: C1 (1 irreducible representation).

                           A     All 
 -------------------------------------
 All molecular orbitals:
  - Alpha                  180   180 
  - Beta                   180   180 
 -------------------------------------
 Alpha orbitals:
  - Frozen occupied        0     0   
  - Active occupied        12    12  
  - Active virtual         168   168 
  - Frozen virtual         0     0   
 -------------------------------------
 Beta orbitals:
  - Frozen occupied        0     0   
  - Active occupied        12    12  
  - Active virtual         168   168 
  - Frozen virtual         0     0   
 -------------------------------------

 Import integrals:   CPU 0.00 s  wall 0.00 s

 Import integrals:   CPU 260.86 s  wall 50.20 s

 MP2 amplitudes:   CPU 1.69 s  wall 0.84 s

Running a double precision version
           CCSD T amplitudes will be solved using DIIS.

           Start     Size      MaxIter   EConv     TConv     
           3         7         100       1.00e-06  1.00e-04  
 ------------------------------------------------------------------------------
           Energy (a.u.)   Ediff      Tdiff       Comment
 ------------------------------------------------------------------------------
          -437.28153508                           
     1    -437.29071639   9.18e-03   6.46e-01     Step took 01.02.
     2    -437.30310355   1.24e-02   7.60e-02     
     3    -437.30360914   5.06e-04   3.01e-02     
     4    -437.30498168   1.37e-03   1.02e-02     Switched to DIIS steps.
     5    -437.30539556   4.14e-04   8.39e-03     
     6    -437.30542868   3.31e-05   2.11e-03     
     7    -437.30542714   1.54e-06   7.54e-04     
     8    -437.30543184   4.70e-06   2.75e-04     
     9    -437.30543281   9.74e-07   7.56e-05     
 ------------------------------------------------------------------------------
          -437.30543281                           CCSD T converged.

End of double precision
 SCF energy                 = -436.55986764
 MP2 energy                 = -437.28153508
 CCSD correlation energy     =   -0.74556517
 CCSD total energy           = -437.30543281

 CCSD  T1^2 = 0.0071  T2^2 = 0.1754  Leading amplitudes:

 Amplitude    Orbitals with energies
 -0.0325       11 (A) A                  ->    14 (A) A                   
              -0.4186                          0.0356                     
 -0.0325       11 (A) B                  ->    14 (A) B                   
              -0.4186                          0.0356                     
 -0.0200       11 (A) A                  ->    50 (A) A                   
              -0.4186                          0.7541                     
 -0.0200       11 (A) B                  ->    50 (A) B                   
              -0.4186                          0.7541                     

 Amplitude    Orbitals with energies
 -0.1103       11 (A) A      11 (A) B    ->    14 (A) A      14 (A) B     
              -0.4186       -0.4186            0.0356        0.0356       
  0.1103       11 (A) A      11 (A) B    ->    14 (A) B      14 (A) A     
              -0.4186       -0.4186            0.0356        0.0356       
  0.1103       11 (A) B      11 (A) A    ->    14 (A) A      14 (A) B     
              -0.4186       -0.4186            0.0356        0.0356       
 -0.1103       11 (A) B      11 (A) A    ->    14 (A) B      14 (A) A     
              -0.4186       -0.4186            0.0356        0.0356       

 Computing CCSD intemediates for later calculations in double precision
 Finished.

Running a double precision version
           CCSD Lambda amplitudes will be solved using DIIS.
           Start     Size      MaxIter   EConv     LConv     
           3         7         100       1.00e-06  1.00e-04  
 ------------------------------------------------------------------------------
            Enorm      Ldiff       Comment
 ------------------------------------------------------------------------------
     1     4.80e-02   3.72e-02     
     2     1.12e-02   2.67e-03     
     3     4.99e-03   1.58e-03     
     4     2.44e-03   6.83e-04     Switched to DIIS steps.
     5     7.26e-04   6.34e-04     
     6     2.98e-04   1.49e-04     
     7     8.96e-05   4.47e-05     
     8     2.84e-05   1.82e-06     
     9     9.73e-06   2.87e-07     
    10     3.46e-06   1.16e-07     
    11     9.78e-07   9.42e-08     
 ------------------------------------------------------------------------------
                                   CCSD Lambda converged.

 Computing density matrices in double precision...
           Orbital response amplitudes will be solved using DIIS.
           Start     Size      MaxIter   EConv     LConv     
           3         7         100       1.00e-06  1.00e-06  
 ------------------------------------------------------------------------------
            Enorm      Ldiff       Comment
 ------------------------------------------------------------------------------
     1     4.87e-02   1.64e-02     
     2     7.21e-02   5.15e-03     
     3     1.17e-01   3.76e-02     
     4     2.70e-03   6.58e-02     Switched to DIIS steps.
     5     3.94e-04   6.35e-04     
     6     2.04e-04   4.68e-05     
     7     4.49e-05   2.33e-05     
     8     5.11e-06   8.37e-06     
     9     2.86e-06   6.41e-07     
    10     2.73e-07   3.44e-07     
 ------------------------------------------------------------------------------
                                   Orbital response converged.

 Computing density matrices... Done.
 Reference state properties
 Relaxed dipole moment (a.u.): 0.672642 (X 0.000000, Y 0.000000, Z -0.672642)
 Relaxed R-squared (a.u.): 109.325058 (XX 14.816470, YY 21.341516, ZZ 73.167073)
 Relaxed density matrix was written to a file for further analysis.

 CCSD calculation:   CPU 5700.02 s  wall 9690.37 s

 Total ccman2 time:   CPU 5986.02 s  wall 9746.61 s

 
 --------------------------------------------------------------
 
                    Orbital Energies (a.u.)
 --------------------------------------------------------------
 
 Alpha MOs
 -- Occupied --
-91.955 -11.319  -8.957  -6.638  -6.638  -6.636  -1.065  -0.813
 -0.645  -0.542  -0.419  -0.352
 -- Virtual --
  0.029   0.036   0.043   0.061   0.092   0.104   0.116   0.131
  0.135   0.148   0.198   0.216   0.230   0.243   0.269   0.289
  0.309   0.316   0.324   0.344   0.375   0.382   0.385   0.402
  0.413   0.428   0.446   0.451   0.472   0.476   0.561   0.619
  0.637   0.655   0.677   0.732   0.739   0.754   0.788   0.803
  0.832   0.836   0.851   0.872   0.878   0.881   0.893   0.958
  0.962   0.969   0.972   0.994   1.020   1.068   1.086   1.105
  1.108   1.127   1.129   1.167   1.208   1.293   1.339   1.391
  1.468   1.497   1.526   1.549   1.571   1.572   1.586   1.647
  1.787   1.801   1.880   1.949   1.967   1.989   1.999   2.027
  2.039   2.043   2.061   2.283   2.289   2.316   2.391   2.408
  2.460   2.504   2.544   2.667   2.674   2.844   2.951   2.979
  3.099   3.114   3.192   3.235   3.456   3.510   3.529   3.642
  3.672   3.735   3.785   3.817   3.842   3.865   3.936   4.054
  4.056   4.231   4.247   4.411   4.447   4.673   4.685   4.735
  4.804   5.067   5.121   5.228   5.247   5.262   5.809   5.822
  6.426   6.509   8.800   8.808   8.855   9.028   9.412  11.096
 11.314  11.644  15.305  15.669  16.646  16.693  17.498  31.946
 31.947  31.949  31.950  31.955  31.967  31.968  39.598  39.602
 39.625  39.702  39.923  41.485  41.488  41.561  41.703  41.746
 47.463  47.702  48.064  81.245  81.961  81.988  86.913  87.430
 --------------------------------------------------------------
 
          Ground-State Mulliken Net Atomic Charges

     Atom                 Charge (a.u.)
  ----------------------------------------
      1 S                    -0.046278
      2 C                    -0.862506
      3 H                     0.454392
      4 H                     0.454392
  ----------------------------------------
  Sum of atomic charges =     0.000000

 -----------------------------------------------------------------
                    Cartesian Multipole Moments
 -----------------------------------------------------------------
    Charge (ESU x 10^10)
                 0.0000
    Dipole Moment (Debye)
         X      -0.0000      Y      -0.0000      Z      -1.7097
       Tot       1.7097
    Quadrupole Moments (Debye-Ang)
        XX     -19.9287     XY       0.0000     YY     -20.4962
        XZ       0.0000     YZ      -0.0000     ZZ     -17.2676
    Octopole Moments (Debye-Ang^2)
       XXX      -0.0000    XXY      -0.0000    XYY       0.0000
       YYY      -0.0000    XXZ       0.9598    XYZ       0.0000
       YYZ      -3.3870    XZZ      -0.0000    YZZ       0.0000
       ZZZ      -1.7726
    Hexadecapole Moments (Debye-Ang^3)
      XXXX     -25.1911   XXXY      -0.0000   XXYY     -10.4534
      XYYY      -0.0000   YYYY     -34.9309   XXXZ       0.0000
      XXYZ       0.0000   XYYZ      -0.0000   YYYZ       0.0000
      XXZZ     -21.5661   XYZZ       0.0000   YYZZ     -21.5532
      XZZZ       0.0000   YZZZ       0.0000   ZZZZ     -99.0729
 -----------------------------------------------------------------
Archival summary:
1\1\n0086.mhg0\SP\ProcedureUnspecified\BasisUnspecified\112\yhljason\MonOct2618:17:152020MonOct2618:17:152020\0\\#,ProcedureUnspecified,BasisUnspecified,\\0,1\S\C,1,1.6108\H,2,1.08695,1,121.739\H,2,1.08695,1,121.739,3,-180,0\\HF=-436.559868\\@

 Total job time:  9811.05s(wall), 6472.11s(cpu) 
 Mon Oct 26 18:17:15 2020

        *************************************************************
        *                                                           *
        *  Thank you very much for using Q-Chem.  Have a nice day.  *
        *                                                           *
        *************************************************************


