Q-Chem Developer Version!
                  Welcome to Q-Chem
     A Quantum Leap Into The Future Of Chemistry


 Q-Chem 5.1, Q-Chem, Inc., Pleasanton, CA (2018)

 Yihan Shao,  Zhengting Gan,  E. Epifanovsky,  A. T. B. Gilbert,  M. Wormit,  
 J. Kussmann,  A. W. Lange,  A. Behn,  Jia Deng,  Xintian Feng,  D. Ghosh,  
 M. Goldey,  P. R. Horn,  L. D. Jacobson,  I. Kaliman,  T. Kus,  A. Landau,  
 Jie Liu,  E. I. Proynov,  R. M. Richard,  R. P. Steele,  E. J. Sundstrom,  
 H. L. Woodcock III,  P. M. Zimmerman,  D. Zuev,  B. Albrecht,  E. Alguire,  
 S. A. Baeppler,  D. Barton,  Z. Benda,  Y. A. Bernard,  E. J. Berquist,  
 K. B. Bravaya,  H. Burton,  D. Casanova,  Chun-Min Chang,  Yunqing Chen,  
 A. Chien,  K. D. Closser,  M. P. Coons,  S. Coriani,  S. Dasgupta,  
 A. L. Dempwolff,  M. Diedenhofen,  Hainam Do,  R. G. Edgar,  Po-Tung Fang,  
 S. Faraji,  S. Fatehi,  Qingguo Feng,  K. D. Fenk,  J. Fosso-Tande,  
 Qinghui Ge,  A. Ghysels,  G. Gidofalvi,  J. Gomes,  J. Gonthier,  A. Gunina,  
 D. Hait,  M. W. D. Hanson-Heine,  P. H. P. Harbach,  A. W. Hauser,  
 J. E. Herr,  E. G. Hohenstein,  Z. C. Holden,  Kerwin Hui,  B. C. Huynh,  
 T.-C. Jagau,  Hyunjun Ji,  B. Kaduk,  K. Khistyaev,  Jaehoon Kim,  
 P. Klunzinger,  K. Koh,  D. Kosenkov,  L. Koulias,  T. Kowalczyk,  
 C. M. Krauter,  A. Kunitsa,  Ka Un Lao,  A. Laurent,  K. V. Lawler,  
 Joonho Lee,  D. Lefrancois,  S. Lehtola,  D. S. Levine,  Yi-Pei Li,  
 You-Sheng Lin,  Fenglai Liu,  E. Livshits,  A. Luenser,  P. Manohar,  
 E. Mansoor,  S. F. Manzer,  Shan-Ping Mao,  Yuezhi Mao,  N. Mardirossian,  
 A. V. Marenich,  T. Markovich,  L. A. Martinez-Martinez,  S. A. Maurer,  
 N. J. Mayhall,  S. C. McKenzie,  J.-M. Mewes,  A. F. Morrison,  
 J. W. Mullinax,  K. Nanda,  T. S. Nguyen-Beck,  R. Olivares-Amaya,  
 J. A. Parkhill,  T. M. Perrine,  F. Plasser,  P. Pokhilko,  S. Prager,  
 A. Prociuk,  E. Ramos,  D. R. Rehn,  F. Rob,  M. Schneider,  N. Sergueev,  
 S. M. Sharada,  S. Sharma,  D. W. Small,  T. Stauch,  T. Stein,  
 Yu-Chuan Su,  A. J. W. Thom,  A. Tkatchenko,  T. Tsuchimochi,  N. M. Tubman,  
 L. Vogt,  M. L. Vidal,  O. Vydrov,  M. A. Watson,  J. Wenzel,  
 M. de Wergifosse,  T. A. Wesolowski,  A. White,  J. Witte,  A. Yamada,  
 Jun Yang,  K. Yao,  S. Yeganeh,  S. R. Yost,  Zhi-Qiang You,  A. Zech,  
 Igor Ying Zhang,  Xing Zhang,  Yan Zhao,  Ying Zhu,  B. R. Brooks,  
 G. K. L. Chan,  C. J. Cramer,  M. S. Gordon,  W. J. Hehre,  A. Klamt,  
 M. W. Schmidt,  C. D. Sherrill,  D. G. Truhlar,  A. Aspuru-Guzik,  R. Baer,  
 A. T. Bell,  N. A. Besley,  Jeng-Da Chai,  A. E. DePrince, III,  
 R. A. DiStasio Jr.,  A. Dreuw,  B. D. Dunietz,  T. R. Furlani,  
 Chao-Ping Hsu,  Yousung Jung,  Jing Kong,  D. S. Lambrecht,  WanZhen Liang,  
 C. Ochsenfeld,  V. A. Rassolov,  L. V. Slipchenko,  J. E. Subotnik,  
 T. Van Voorhis,  J. M. Herbert,  A. I. Krylov,  P. M. W. Gill,  M. Head-Gordon

 Contributors to earlier versions of Q-Chem not listed above: 
 R. D. Adamson,  B. Austin,  J. Baker,  G. J. O. Beran,  K. Brandhorst,  
 S. T. Brown,  E. F. C. Byrd,  A. K. Chakraborty,  C.-L. Cheng,  
 Siu Hung Chien,  D. M. Chipman,  D. L. Crittenden,  H. Dachsel,  
 R. J. Doerksen,  A. D. Dutoi,  L. Fusti-Molnar,  W. A. Goddard III,  
 A. Golubeva-Zadorozhnaya,  S. R. Gwaltney,  G. Hawkins,  A. Heyden,  
 S. Hirata,  G. Kedziora,  F. J. Keil,  C. Kelley,  Jihan Kim,  R. A. King,  
 R. Z. Khaliullin,  P. P. Korambath,  W. Kurlancheek,  A. M. Lee,  M. S. Lee,  
 S. V. Levchenko,  Ching Yeh Lin,  D. Liotard,  R. C. Lochan,  I. Lotan,  
 P. E. Maslen,  N. Nair,  D. P. O'Neill,  D. Neuhauser,  E. Neuscamman,  
 C. M. Oana,  R. Olson,  B. Peters,  R. Peverati,  P. A. Pieniazek,  
 Y. M. Rhee,  J. Ritchie,  M. A. Rohrdanz,  E. Rosta,  N. J. Russ,  
 H. F. Schaefer III,  N. E. Schultz,  N. Shenvi,  A. C. Simmonett,  A. Sodt,  
 D. Stuck,  K. S. Thanthiriwatte,  V. Vanovschi,  Tao Wang,  A. Warshel,  
 C. F. Williams,  Q. Wu,  X. Xu,  W. Zhang

 Please cite Q-Chem as follows:
 Y. Shao et al., Mol. Phys. 113, 184-215 (2015)
 DOI: 10.1080/00268976.2014.952696

 Q-Chem 5.1.1 for Intel X86 EM64T Linux

 Parts of Q-Chem use Armadillo 8.300.2 (Tropical Shenanigans).
 http://arma.sourceforge.net/

 Q-Chem begins on Mon Oct 26 15:33:50 2020  

Host: n0099.mhg0
0

     Scratch files written to /local/scratch/users/yhljason/Ne_ccsd_aug-cc-pcVTZ.inp20201026153346//
Input Ideriv = 1
Curr. Ideriv = -1
Max.  Ideriv = 1

Checking the input file for inconsistencies... 	...done.

--------------------------------------------------------------
User input:
--------------------------------------------------------------
$molecule
0 1
Ne
$end

$rem
method ccsd
basis aug-cc-pcVTZ
CC_REF_PROP true
cc_fullresponse true
n_frozen_core 0
scf_convergence 8
scf_algorithm gdm
thresh 14
symmetry false
sym_ignore true
$end
--------------------------------------------------------------
 ----------------------------------------------------------------
             Standard Nuclear Orientation (Angstroms)
    I     Atom           X                Y                Z
 ----------------------------------------------------------------
    1      Ne      0.0000000000     0.0000000000     0.0000000000
 ----------------------------------------------------------------
 Nuclear Repulsion Energy =     0.0000000000 hartrees
 There are        5 alpha and        5 beta electrons
 Requested basis set is aug-cc-pCVTZ
 There are 19 shells and 59 basis functions
 Total memory of 2000MB is distributed as follows: 
   QALLOC including MEM_STATIC uses 192MB
   MEM_STATIC is set to 192MB
   CCMAN JOB total memory use is  1808MB
 Warning: actual memory use might exceed 2000MB

 Total QAlloc Memory Limit    192 MB
 Mega-Array Size       188 MB
 MEM_STATIC part       192 MB
 A cutoff of  1.0D-14 yielded    190 shell pairs
 There are      1870 function pairs (      2583 Cartesian)
 
 -------------------------------------------------------
 OpenMP Integral Computing Module                       
 Release: version 1.0, May 2013, Q-Chem Inc. Pittsburgh 
 -------------------------------------------------------
 Integral Job Info:
 Integral job number is                      11
 Integral operator is                         1
 short-range coefficients                     0
 long-range coefficients              100000000
 Omega coefficients                           0
 if combine SR and LR in K                    0
 Integral screening is                        0
 Integral computing path is                   2
 max size of driver memory is            800000
 size of driver memory is                776718
 size of scratch memory is              6691272
 max col of scratch BK array              10000
 max len of scratch array in speh3          662
 max len of scratch index in speh4           32
 max int batch size is                      520
 min int batch size is                       52
 fixed nKL is                                52
 max L of basis functions is                  3
 order of int derivative is                   0
 number of shells is                         19
 number of basis is                          69
 number of cartesian basis is                69
 number of contracted shell pairs           190
 number of primitive shell pairs            689
 maxK2 (contraction) of shell pair           64
 max number of K2 of shell pair               1
 max number of CS2 of shell pair             25
 max number of PS2 of shell pair            192
 mem total for path MDJ                  531848
 -------------------------------------------------------
 Smallest overlap matrix eigenvalue = 1.00E-02

 Scale SEOQF with 1.000000e+00/1.000000e+00/1.000000e+00

 Standard Electronic Orientation quadrupole field applied
 Guess from superposition of atomic densities
 Warning:  Energy on first SCF cycle will be non-variational
 SAD guess density has 10.000000 electrons

 -----------------------------------------------------------------------
  General SCF calculation program by
  Eric Jon Sundstrom, Paul Horn, Yuezhi Mao, Dmitri Zuev, Alec White,
  David Stuck, Shaama M.S., Shane Yost, Joonho Lee, David Small,
  Daniel Levine, Susi Lehtola, Hugh Burton, Evgeny Epifanovsky
 -----------------------------------------------------------------------
 Hartree-Fock
 using 8 threads for integral computing
 -------------------------------------------------------
 OpenMP Integral computing Module                
 Release: version 2.0, May 2017, Q-Chem Inc. Pleasanton 
 -------------------------------------------------------
 A restricted SCF calculation will be
 performed using Roothaan-Hall, GDM
 SCF converges when RMS gradient is below 1.0e-08
 ---------------------------------------
  Cycle       Energy         DIIS error
 ---------------------------------------
    1    -128.5333941123      8.19e-08  Roothaan Step
 ---------------------------------------
  Cycle       Energy        RMS Gradient
 ---------------------------------------
    1    -128.5333904405      5.33e-08   Normal BFGS step
    2    -128.5333904405      2.13e-08   Normal BFGS step
    3    -128.5333904405      1.33e-09  Convergence criterion met
 ---------------------------------------
 SCF time:   CPU 7.17s  wall 1.00s 
 SCF   energy in the final basis set =     -128.5333904405
 Total energy in the final basis set =     -128.5333904405


 ------------------------------------------------------------------------------

   CCMAN2: suite of methods based on coupled cluster
           and equation of motion theories.

   Components:
   * libvmm-1.3-trunk
     by Evgeny Epifanovsky, Ilya Kaliman.
   * libtensor-2.5-trunk
     by Evgeny Epifanovsky, Michael Wormit, Dmitry Zuev, Sam Manzer, 
        Ilya Kaliman.
   * libcc-2.5-trunk
     by Evgeny Epifanovsky, Arik Landau, Tomasz Kus, Kirill Khistyaev, 
        Dmitry Zuev, Prashant Manohar, Xintian Feng, Anna Krylov, 
        Matthew Goldey, Alec White, Thomas Jagau, Kaushik Nanda, 
        Anastasia Gunina, Alexander Kunitsa, Joonho Lee.

   CCMAN original authors:
   Anna I. Krylov, C. David Sherrill, Steven R. Gwaltney,
   Edward F. C. Byrd (2000)
   Sergey V. Levchenko, Lyudmila V. Slipchenko, Tao Wang,
   Ana-Maria C. Cristian (2003)
   Piotr A. Pieniazek, C. Melania Oana, Evgeny Epifanovsky (2007)
   Prashant Manohar (2009)

 ------------------------------------------------------------------------------


 Allocating and initializing 1808MB of RAM...
 Calculation will run on 8 cores.

 
 Alpha MOs, Restricted
 -- Occupied --                  
-32.778  -1.933  -0.851  -0.851  -0.851
  1 A     2 A     3 A     4 A     5 A                                          
 -- Virtual --                   
  0.238   0.241   0.241   0.241   1.132   1.132   1.132   1.132
  6 A     7 A     8 A     9 A    10 A    11 A    12 A    13 A                  
  1.132   1.351   1.351   1.351   1.692   3.604   3.604   3.604
 14 A    15 A    16 A    17 A    18 A    19 A    20 A    21 A                  
  3.604   3.604   4.198   4.198   4.198   4.198   4.198   4.198
 22 A    23 A    24 A    25 A    26 A    27 A    28 A    29 A                  
  4.198   6.128   6.128   6.128   8.009  11.809  11.809  11.809
 30 A    31 A    32 A    33 A    34 A    35 A    36 A    37 A                  
 11.809  11.809  11.987  11.987  11.987  11.987  11.987  11.987
 38 A    39 A    40 A    41 A    42 A    43 A    44 A    45 A                  
 11.987  38.764  38.764  38.764  42.441  64.665  64.665  64.665
 46 A    47 A    48 A    49 A    50 A    51 A    52 A    53 A                  
 64.665  64.665 206.828 206.828 206.828 223.935
 54 A    55 A    56 A    57 A    58 A    59 A                                  
 
 Beta MOs, Restricted
 -- Occupied --                  
-32.778  -1.933  -0.851  -0.851  -0.851
  1 A     2 A     3 A     4 A     5 A                                          
 -- Virtual --                   
  0.238   0.241   0.241   0.241   1.132   1.132   1.132   1.132
  6 A     7 A     8 A     9 A    10 A    11 A    12 A    13 A                  
  1.132   1.351   1.351   1.351   1.692   3.604   3.604   3.604
 14 A    15 A    16 A    17 A    18 A    19 A    20 A    21 A                  
  3.604   3.604   4.198   4.198   4.198   4.198   4.198   4.198
 22 A    23 A    24 A    25 A    26 A    27 A    28 A    29 A                  
  4.198   6.128   6.128   6.128   8.009  11.809  11.809  11.809
 30 A    31 A    32 A    33 A    34 A    35 A    36 A    37 A                  
 11.809  11.809  11.987  11.987  11.987  11.987  11.987  11.987
 38 A    39 A    40 A    41 A    42 A    43 A    44 A    45 A                  
 11.987  38.764  38.764  38.764  42.441  64.665  64.665  64.665
 46 A    47 A    48 A    49 A    50 A    51 A    52 A    53 A                  
 64.665  64.665 206.828 206.828 206.828 223.935
 54 A    55 A    56 A    57 A    58 A    59 A                                  

 Occupation and symmetry of molecular orbitals

 Point group: C1 (1 irreducible representation).

                           A     All 
 -------------------------------------
 All molecular orbitals:
  - Alpha                  59    59  
  - Beta                   59    59  
 -------------------------------------
 Alpha orbitals:
  - Frozen occupied        0     0   
  - Active occupied        5     5   
  - Active virtual         54    54  
  - Frozen virtual         0     0   
 -------------------------------------
 Beta orbitals:
  - Frozen occupied        0     0   
  - Active occupied        5     5   
  - Active virtual         54    54  
  - Frozen virtual         0     0   
 -------------------------------------

 Import integrals:   CPU 0.00 s  wall 0.00 s

 Import integrals:   CPU 5.54 s  wall 0.71 s

 MP2 amplitudes:   CPU 0.05 s  wall 0.02 s

Running a double precision version
           CCSD T amplitudes will be solved using DIIS.

           Start     Size      MaxIter   EConv     TConv     
           3         7         100       1.00e-06  1.00e-04  
 ------------------------------------------------------------------------------
           Energy (a.u.)   Ediff      Tdiff       Comment
 ------------------------------------------------------------------------------
          -128.87068198                           
     1    -128.86879900   1.88e-03   3.36e-01     
     2    -128.87234216   3.54e-03   3.22e-02     
     3    -128.87226515   7.70e-05   9.59e-03     
     4    -128.87242265   1.58e-04   2.88e-03     Switched to DIIS steps.
     5    -128.87246555   4.29e-05   1.29e-03     
     6    -128.87246480   7.43e-07   1.22e-04     
     7    -128.87246446   3.39e-07   3.47e-05     
 ------------------------------------------------------------------------------
          -128.87246446                           CCSD T converged.

End of double precision
 SCF energy                 = -128.53339044
 MP2 energy                 = -128.87068198
 CCSD correlation energy     =   -0.33907402
 CCSD total energy           = -128.87246446

 CCSD  T1^2 = 0.0008  T2^2 = 0.0362  Leading amplitudes:

 Amplitude    Orbitals with energies
  0.0097       5 (A) A                   ->    9 (A) A                    
              -0.8512                          0.2407                     
  0.0097       5 (A) B                   ->    9 (A) B                    
              -0.8512                          0.2407                     
 -0.0097       4 (A) A                   ->    8 (A) A                    
              -0.8512                          0.2407                     
 -0.0097       4 (A) B                   ->    8 (A) B                    
              -0.8512                          0.2407                     
 -0.0097       3 (A) A                   ->    7 (A) A                    
              -0.8512                          0.2407                     
 -0.0097       3 (A) B                   ->    7 (A) B                    
              -0.8512                          0.2407                     

 Amplitude    Orbitals with energies
 -0.0289       5 (A) A       5 (A) B     ->    17 (A) A      17 (A) B     
              -0.8512       -0.8512            1.3511        1.3511       
  0.0289       5 (A) A       5 (A) B     ->    17 (A) B      17 (A) A     
              -0.8512       -0.8512            1.3511        1.3511       
  0.0289       5 (A) B       5 (A) A     ->    17 (A) A      17 (A) B     
              -0.8512       -0.8512            1.3511        1.3511       
 -0.0289       5 (A) B       5 (A) A     ->    17 (A) B      17 (A) A     
              -0.8512       -0.8512            1.3511        1.3511       
 -0.0289       4 (A) A       4 (A) B     ->    16 (A) A      16 (A) B     
              -0.8512       -0.8512            1.3511        1.3511       
  0.0289       4 (A) A       4 (A) B     ->    16 (A) B      16 (A) A     
              -0.8512       -0.8512            1.3511        1.3511       
  0.0289       4 (A) B       4 (A) A     ->    16 (A) A      16 (A) B     
              -0.8512       -0.8512            1.3511        1.3511       
 -0.0289       4 (A) B       4 (A) A     ->    16 (A) B      16 (A) A     
              -0.8512       -0.8512            1.3511        1.3511       
 -0.0289       3 (A) A       3 (A) B     ->    15 (A) A      15 (A) B     
              -0.8512       -0.8512            1.3511        1.3511       
  0.0289       3 (A) A       3 (A) B     ->    15 (A) B      15 (A) A     
              -0.8512       -0.8512            1.3511        1.3511       
  0.0289       3 (A) B       3 (A) A     ->    15 (A) A      15 (A) B     
              -0.8512       -0.8512            1.3511        1.3511       
 -0.0289       3 (A) B       3 (A) A     ->    15 (A) B      15 (A) A     
              -0.8512       -0.8512            1.3511        1.3511       

 Computing CCSD intemediates for later calculations in double precision
 Finished.

Running a double precision version
           CCSD Lambda amplitudes will be solved using DIIS.
           Start     Size      MaxIter   EConv     LConv     
           3         7         100       1.00e-06  1.00e-04  
 ------------------------------------------------------------------------------
            Enorm      Ldiff       Comment
 ------------------------------------------------------------------------------
     1     1.08e-02   3.06e-03     
     2     3.69e-03   1.92e-03     
     3     1.08e-03   1.94e-05     
     4     4.30e-04   1.66e-04     Switched to DIIS steps.
     5     4.52e-05   4.92e-05     
     6     1.23e-05   2.02e-06     
     7     1.27e-06   1.98e-07     
     8     3.25e-07   2.46e-08     
 ------------------------------------------------------------------------------
                                   CCSD Lambda converged.

 Computing density matrices in double precision...
           Orbital response amplitudes will be solved using DIIS.
           Start     Size      MaxIter   EConv     LConv     
           3         7         100       1.00e-06  1.00e-06  
 ------------------------------------------------------------------------------
            Enorm      Ldiff       Comment
 ------------------------------------------------------------------------------
     1     2.47e-02   2.74e-03     
     2     9.80e-03   7.73e-03     
     3     8.01e-03   5.77e-03     
     4     4.08e-04   3.44e-03     Switched to DIIS steps.
     5     2.84e-06   1.59e-04     
     6     2.14e-07   3.52e-07     
 ------------------------------------------------------------------------------
                                   Orbital response converged.

 Computing density matrices... Done.
 Reference state properties
 Relaxed dipole moment (a.u.): 0.000000 (X 0.000000, Y 0.000000, Z 0.000000)
 Relaxed R-squared (a.u.): 9.599901 (XX 3.199967, YY 3.199967, ZZ 3.199967)
 Relaxed density matrix was written to a file for further analysis.

 CCSD calculation:   CPU 47.68 s  wall 10.32 s

 Total ccman2 time:   CPU 58.23 s  wall 12.36 s

 
 --------------------------------------------------------------
 
                    Orbital Energies (a.u.)
 --------------------------------------------------------------
 
 Alpha MOs
 -- Occupied --
-32.778  -1.933  -0.851  -0.851  -0.851
 -- Virtual --
  0.238   0.241   0.241   0.241   1.132   1.132   1.132   1.132
  1.132   1.351   1.351   1.351   1.692   3.604   3.604   3.604
  3.604   3.604   4.198   4.198   4.198   4.198   4.198   4.198
  4.198   6.128   6.128   6.128   8.009  11.809  11.809  11.809
 11.809  11.809  11.987  11.987  11.987  11.987  11.987  11.987
 11.987  38.764  38.764  38.764  42.441  64.665  64.665  64.665
 64.665  64.665 206.828 206.828 206.828 223.935
 --------------------------------------------------------------
 
          Ground-State Mulliken Net Atomic Charges

     Atom                 Charge (a.u.)
  ----------------------------------------
      1 Ne                   -0.000000
  ----------------------------------------
  Sum of atomic charges =    -0.000000

 -----------------------------------------------------------------
                    Cartesian Multipole Moments
 -----------------------------------------------------------------
    Charge (ESU x 10^10)
                 0.0000
    Dipole Moment (Debye)
         X      -0.0000      Y      -0.0000      Z      -0.0000
       Tot       0.0000
    Quadrupole Moments (Debye-Ang)
        XX      -4.3041     XY      -0.0000     YY      -4.3041
        XZ      -0.0000     YZ       0.0000     ZZ      -4.3041
    Octopole Moments (Debye-Ang^2)
       XXX      -0.0000    XXY      -0.0000    XYY       0.0000
       YYY      -0.0000    XXZ      -0.0000    XYZ       0.0000
       YYZ      -0.0000    XZZ      -0.0000    YZZ      -0.0000
       ZZZ      -0.0000
    Hexadecapole Moments (Debye-Ang^3)
      XXXX      -2.1964   XXXY      -0.0000   XXYY      -0.7321
      XYYY      -0.0000   YYYY      -2.1964   XXXZ      -0.0000
      XXYZ      -0.0000   XYYZ      -0.0000   YYYZ       0.0000
      XXZZ      -0.7321   XYZZ      -0.0000   YYZZ      -0.7321
      XZZZ       0.0000   YZZZ      -0.0000   ZZZZ      -2.1964
 -----------------------------------------------------------------

 STANDARD THERMODYNAMIC QUANTITIES AT   298.15 K  AND     1.00 ATM

   Translational Enthalpy:        0.889 kcal/mol
   Rotational Enthalpy:           0.000 kcal/mol
   Vibrational Enthalpy:          0.000 kcal/mol
   gas constant (RT):             0.592 kcal/mol
   Translational Entropy:        34.919  cal/mol.K
   Rotational Entropy:            0.000  cal/mol.K
   Vibrational Entropy:           0.000  cal/mol.K

   Total Enthalpy:                1.481 kcal/mol
   Total Entropy:                34.919  cal/mol.K

 -----------------------------------------------------------------

Archival summary:
1\1\n0099.mhg0\SP\ProcedureUnspecified\BasisUnspecified\e1\yhljason\MonOct2615:34:062020MonOct2615:34:062020\0\\#,ProcedureUnspecified,BasisUnspecified,\\0,1\Ne\\HF=-128.53339\\@

 Total job time:  15.79s(wall), 73.99s(cpu) 
 Mon Oct 26 15:34:06 2020

        *************************************************************
        *                                                           *
        *  Thank you very much for using Q-Chem.  Have a nice day.  *
        *                                                           *
        *************************************************************


