Q-Chem Developer Version!
                  Welcome to Q-Chem
     A Quantum Leap Into The Future Of Chemistry


 Q-Chem 5.1, Q-Chem, Inc., Pleasanton, CA (2018)

 Yihan Shao,  Zhengting Gan,  E. Epifanovsky,  A. T. B. Gilbert,  M. Wormit,  
 J. Kussmann,  A. W. Lange,  A. Behn,  Jia Deng,  Xintian Feng,  D. Ghosh,  
 M. Goldey,  P. R. Horn,  L. D. Jacobson,  I. Kaliman,  T. Kus,  A. Landau,  
 Jie Liu,  E. I. Proynov,  R. M. Richard,  R. P. Steele,  E. J. Sundstrom,  
 H. L. Woodcock III,  P. M. Zimmerman,  D. Zuev,  B. Albrecht,  E. Alguire,  
 S. A. Baeppler,  D. Barton,  Z. Benda,  Y. A. Bernard,  E. J. Berquist,  
 K. B. Bravaya,  H. Burton,  D. Casanova,  Chun-Min Chang,  Yunqing Chen,  
 A. Chien,  K. D. Closser,  M. P. Coons,  S. Coriani,  S. Dasgupta,  
 A. L. Dempwolff,  M. Diedenhofen,  Hainam Do,  R. G. Edgar,  Po-Tung Fang,  
 S. Faraji,  S. Fatehi,  Qingguo Feng,  K. D. Fenk,  J. Fosso-Tande,  
 Qinghui Ge,  A. Ghysels,  G. Gidofalvi,  J. Gomes,  J. Gonthier,  A. Gunina,  
 D. Hait,  M. W. D. Hanson-Heine,  P. H. P. Harbach,  A. W. Hauser,  
 J. E. Herr,  E. G. Hohenstein,  Z. C. Holden,  Kerwin Hui,  B. C. Huynh,  
 T.-C. Jagau,  Hyunjun Ji,  B. Kaduk,  K. Khistyaev,  Jaehoon Kim,  
 P. Klunzinger,  K. Koh,  D. Kosenkov,  L. Koulias,  T. Kowalczyk,  
 C. M. Krauter,  A. Kunitsa,  Ka Un Lao,  A. Laurent,  K. V. Lawler,  
 Joonho Lee,  D. Lefrancois,  S. Lehtola,  D. S. Levine,  Yi-Pei Li,  
 You-Sheng Lin,  Fenglai Liu,  E. Livshits,  A. Luenser,  P. Manohar,  
 E. Mansoor,  S. F. Manzer,  Shan-Ping Mao,  Yuezhi Mao,  N. Mardirossian,  
 A. V. Marenich,  T. Markovich,  L. A. Martinez-Martinez,  S. A. Maurer,  
 N. J. Mayhall,  S. C. McKenzie,  J.-M. Mewes,  A. F. Morrison,  
 J. W. Mullinax,  K. Nanda,  T. S. Nguyen-Beck,  R. Olivares-Amaya,  
 J. A. Parkhill,  T. M. Perrine,  F. Plasser,  P. Pokhilko,  S. Prager,  
 A. Prociuk,  E. Ramos,  D. R. Rehn,  F. Rob,  M. Schneider,  N. Sergueev,  
 S. M. Sharada,  S. Sharma,  D. W. Small,  T. Stauch,  T. Stein,  
 Yu-Chuan Su,  A. J. W. Thom,  A. Tkatchenko,  T. Tsuchimochi,  N. M. Tubman,  
 L. Vogt,  M. L. Vidal,  O. Vydrov,  M. A. Watson,  J. Wenzel,  
 M. de Wergifosse,  T. A. Wesolowski,  A. White,  J. Witte,  A. Yamada,  
 Jun Yang,  K. Yao,  S. Yeganeh,  S. R. Yost,  Zhi-Qiang You,  A. Zech,  
 Igor Ying Zhang,  Xing Zhang,  Yan Zhao,  Ying Zhu,  B. R. Brooks,  
 G. K. L. Chan,  C. J. Cramer,  M. S. Gordon,  W. J. Hehre,  A. Klamt,  
 M. W. Schmidt,  C. D. Sherrill,  D. G. Truhlar,  A. Aspuru-Guzik,  R. Baer,  
 A. T. Bell,  N. A. Besley,  Jeng-Da Chai,  A. E. DePrince, III,  
 R. A. DiStasio Jr.,  A. Dreuw,  B. D. Dunietz,  T. R. Furlani,  
 Chao-Ping Hsu,  Yousung Jung,  Jing Kong,  D. S. Lambrecht,  WanZhen Liang,  
 C. Ochsenfeld,  V. A. Rassolov,  L. V. Slipchenko,  J. E. Subotnik,  
 T. Van Voorhis,  J. M. Herbert,  A. I. Krylov,  P. M. W. Gill,  M. Head-Gordon

 Contributors to earlier versions of Q-Chem not listed above: 
 R. D. Adamson,  B. Austin,  J. Baker,  G. J. O. Beran,  K. Brandhorst,  
 S. T. Brown,  E. F. C. Byrd,  A. K. Chakraborty,  C.-L. Cheng,  
 Siu Hung Chien,  D. M. Chipman,  D. L. Crittenden,  H. Dachsel,  
 R. J. Doerksen,  A. D. Dutoi,  L. Fusti-Molnar,  W. A. Goddard III,  
 A. Golubeva-Zadorozhnaya,  S. R. Gwaltney,  G. Hawkins,  A. Heyden,  
 S. Hirata,  G. Kedziora,  F. J. Keil,  C. Kelley,  Jihan Kim,  R. A. King,  
 R. Z. Khaliullin,  P. P. Korambath,  W. Kurlancheek,  A. M. Lee,  M. S. Lee,  
 S. V. Levchenko,  Ching Yeh Lin,  D. Liotard,  R. C. Lochan,  I. Lotan,  
 P. E. Maslen,  N. Nair,  D. P. O'Neill,  D. Neuhauser,  E. Neuscamman,  
 C. M. Oana,  R. Olson,  B. Peters,  R. Peverati,  P. A. Pieniazek,  
 Y. M. Rhee,  J. Ritchie,  M. A. Rohrdanz,  E. Rosta,  N. J. Russ,  
 H. F. Schaefer III,  N. E. Schultz,  N. Shenvi,  A. C. Simmonett,  A. Sodt,  
 D. Stuck,  K. S. Thanthiriwatte,  V. Vanovschi,  Tao Wang,  A. Warshel,  
 C. F. Williams,  Q. Wu,  X. Xu,  W. Zhang

 Please cite Q-Chem as follows:
 Y. Shao et al., Mol. Phys. 113, 184-215 (2015)
 DOI: 10.1080/00268976.2014.952696

 Q-Chem 5.1.1 for Intel X86 EM64T Linux

 Parts of Q-Chem use Armadillo 8.300.2 (Tropical Shenanigans).
 http://arma.sourceforge.net/

 Q-Chem begins on Mon Oct 26 15:34:49 2020  

Host: n0089.mhg0
0

     Scratch files written to /local/scratch/users/yhljason/SiH3_ccsd_aug-cc-pcVTZ.inp20201026153357//
Input Ideriv = 1
Curr. Ideriv = -1
Max.  Ideriv = 1

Checking the input file for inconsistencies... 	...done.

--------------------------------------------------------------
User input:
--------------------------------------------------------------
$molecule
0 2
Si1   0.0000   0.0000   0.0819
H2 0.0000   1.3928   -0.3820
H3 1.2062   -0.6964  -0.3820
H4 -1.2062  -0.6964  -0.3820
$end

$rem
method ccsd
basis aug-cc-pcVTZ
CC_REF_PROP true
cc_fullresponse true
n_frozen_core 0
scf_convergence 8
scf_algorithm gdm
thresh 14
symmetry false
sym_ignore true
$end
--------------------------------------------------------------
 ----------------------------------------------------------------
             Standard Nuclear Orientation (Angstroms)
    I     Atom           X                Y                Z
 ----------------------------------------------------------------
    1      Si      0.0000000000     0.0000000000     0.0819000000
    2      H       0.0000000000     1.3928000000    -0.3820000000
    3      H       1.2062000000    -0.6964000000    -0.3820000000
    4      H      -1.2062000000    -0.6964000000    -0.3820000000
 ----------------------------------------------------------------
 Nuclear Repulsion Energy =    15.7977703342 hartrees
 There are        9 alpha and        8 beta electrons
 Requested basis set is aug-cc-pCVTZ
 There are 50 shells and 144 basis functions
 Total memory of 2000MB is distributed as follows: 
   QALLOC including MEM_STATIC uses 192MB
   MEM_STATIC is set to 192MB
   CCMAN JOB total memory use is  1808MB
 Warning: actual memory use might exceed 2000MB

 Total QAlloc Memory Limit    192 MB
 Mega-Array Size       188 MB
 MEM_STATIC part       192 MB

                       Distance Matrix (Angstroms)
             Si(  1)   H (  2)   H (  3)
   H (  2)  1.468024
   H (  3)  1.468024  2.412400
   H (  4)  1.468024  2.412400  2.412400
 
 A cutoff of  1.0D-14 yielded   1275 shell pairs
 There are     10661 function pairs (     13878 Cartesian)
 
 -------------------------------------------------------
 OpenMP Integral Computing Module                       
 Release: version 1.0, May 2013, Q-Chem Inc. Pittsburgh 
 -------------------------------------------------------
 Integral Job Info:
 Integral job number is                      11
 Integral operator is                         1
 short-range coefficients                     0
 long-range coefficients              100000000
 Omega coefficients                           0
 if combine SR and LR in K                    0
 Integral screening is                        0
 Integral computing path is                   2
 max size of driver memory is            800000
 size of driver memory is                776718
 size of scratch memory is             29531563
 max col of scratch BK array              10000
 max len of scratch array in speh3          662
 max len of scratch index in speh4           32
 max int batch size is                      520
 min int batch size is                       52
 fixed nKL is                                31
 max L of basis functions is                  3
 order of int derivative is                   0
 number of shells is                         50
 number of basis is                         164
 number of cartesian basis is               164
 number of contracted shell pairs          1275
 number of primitive shell pairs           5508
 maxK2 (contraction) of shell pair          169
 max number of K2 of shell pair               1
 max number of CS2 of shell pair            196
 max number of PS2 of shell pair           1014
 mem total for path MDJ                  547738
 -------------------------------------------------------
 Smallest overlap matrix eigenvalue = 1.20E-04

 Scale SEOQF with 1.000000e-01/1.000000e-01/1.000000e-01

 Standard Electronic Orientation quadrupole field applied
 Nucleus-field energy     =     0.0000000003 hartrees
 Guess from superposition of atomic densities
 Warning:  Energy on first SCF cycle will be non-variational
 SAD guess density has 17.000000 electrons

 -----------------------------------------------------------------------
  General SCF calculation program by
  Eric Jon Sundstrom, Paul Horn, Yuezhi Mao, Dmitri Zuev, Alec White,
  David Stuck, Shaama M.S., Shane Yost, Joonho Lee, David Small,
  Daniel Levine, Susi Lehtola, Hugh Burton, Evgeny Epifanovsky
 -----------------------------------------------------------------------
 Hartree-Fock
 using 8 threads for integral computing
 -------------------------------------------------------
 OpenMP Integral computing Module                
 Release: version 2.0, May 2017, Q-Chem Inc. Pleasanton 
 -------------------------------------------------------
 A unrestricted SCF calculation will be
 performed using Roothaan-Hall, GDM
 SCF converges when RMS gradient is below 1.0e-08
 ---------------------------------------
  Cycle       Energy         DIIS error
 ---------------------------------------
    1    -290.4444284157      8.97e-03  Roothaan Step
 ---------------------------------------
  Cycle       Energy        RMS Gradient
 ---------------------------------------
    1    -290.6183739221      5.44e-02   Normal BFGS step
    2    -290.6387421386      1.99e-02   Normal BFGS step
    3    -290.6423575913      4.54e-03   Normal BFGS step
    4    -290.6425482698      1.94e-03   Normal BFGS step
    5    -290.6425979283      4.61e-04   Normal BFGS step
    6    -290.6426005085      2.11e-04   Normal BFGS step
    7    -290.6426012784      6.13e-05   Normal BFGS step
    8    -290.6426013273      3.44e-05   Normal BFGS step
    9    -290.6426013386      1.26e-05   Normal BFGS step
   10    -290.6426013398      4.54e-06   Normal BFGS step
   11    -290.6426013401      1.55e-06   Normal BFGS step
   12    -290.6426013402      8.18e-07   Normal BFGS step
   13    -290.6426013402      2.28e-07   Normal BFGS step
   14    -290.6426013402      7.01e-08   Normal BFGS step
   15    -290.6426013402      2.22e-08   Normal BFGS step
   16    -290.6426013402      7.20e-09  Convergence criterion met
 ---------------------------------------
 SCF time:   CPU 270.63s  wall 35.00s 
<S^2> =          0.755016755
 SCF   energy in the final basis set =     -290.6426013402
 Total energy in the final basis set =     -290.6426013402


 ------------------------------------------------------------------------------

   CCMAN2: suite of methods based on coupled cluster
           and equation of motion theories.

   Components:
   * libvmm-1.3-trunk
     by Evgeny Epifanovsky, Ilya Kaliman.
   * libtensor-2.5-trunk
     by Evgeny Epifanovsky, Michael Wormit, Dmitry Zuev, Sam Manzer, 
        Ilya Kaliman.
   * libcc-2.5-trunk
     by Evgeny Epifanovsky, Arik Landau, Tomasz Kus, Kirill Khistyaev, 
        Dmitry Zuev, Prashant Manohar, Xintian Feng, Anna Krylov, 
        Matthew Goldey, Alec White, Thomas Jagau, Kaushik Nanda, 
        Anastasia Gunina, Alexander Kunitsa, Joonho Lee.

   CCMAN original authors:
   Anna I. Krylov, C. David Sherrill, Steven R. Gwaltney,
   Edward F. C. Byrd (2000)
   Sergey V. Levchenko, Lyudmila V. Slipchenko, Tao Wang,
   Ana-Maria C. Cristian (2003)
   Piotr A. Pieniazek, C. Melania Oana, Evgeny Epifanovsky (2007)
   Prashant Manohar (2009)

 ------------------------------------------------------------------------------


 Allocating and initializing 1808MB of RAM...
 Calculation will run on 8 cores.

 
 Alpha MOs, Unrestricted
 -- Occupied --                  
-68.785  -6.134  -4.247  -4.237  -4.237  -0.733  -0.495  -0.495
  1 A     2 A     3 A     4 A     5 A     6 A     7 A     8 A                  
 -0.339
  9 A                                                                          
 -- Virtual --                   
  0.031   0.056   0.056   0.063   0.069   0.069   0.128   0.138
 10 A    11 A    12 A    13 A    14 A    15 A    16 A    17 A                  
  0.138   0.145   0.155   0.155   0.247   0.247   0.250   0.264
 18 A    19 A    20 A    21 A    22 A    23 A    24 A    25 A                  
  0.276   0.276   0.310   0.312   0.312   0.352   0.352   0.367
 26 A    27 A    28 A    29 A    30 A    31 A    32 A    33 A                  
  0.449   0.474   0.474   0.494   0.535   0.540   0.540   0.565
 34 A    35 A    36 A    37 A    38 A    39 A    40 A    41 A                  
  0.597   0.597   0.622   0.622   0.634   0.651   0.651   0.664
 42 A    43 A    44 A    45 A    46 A    47 A    48 A    49 A                  
  0.843   0.908   0.908   0.950   0.969   0.969   1.019   1.019
 50 A    51 A    52 A    53 A    54 A    55 A    56 A    57 A                  
  1.065   1.075   1.075   1.089   1.124   1.124   1.221   1.226
 58 A    59 A    60 A    61 A    62 A    63 A    64 A    65 A                  
  1.226   1.254   1.271   1.271   1.312   1.340   1.341   1.341
 66 A    67 A    68 A    69 A    70 A    71 A    72 A    73 A                  
  1.385   1.385   1.459   1.514   1.514   1.567   1.722   1.891
 74 A    75 A    76 A    77 A    78 A    79 A    80 A    81 A                  
  1.891   1.932   1.932   1.938   2.009   2.147   2.158   2.158
 82 A    83 A    84 A    85 A    86 A    87 A    88 A    89 A                  
  2.680   2.779   2.779   3.336   3.336   3.356   3.935   3.935
 90 A    91 A    92 A    93 A    94 A    95 A    96 A    97 A                  
  3.971   4.035   4.038   4.038   4.118   4.118   4.144   4.199
 98 A    99 A   100 A   101 A   102 A   103 A   104 A   105 A                  
  4.199   4.291   4.362   4.427   4.438   4.438   4.465   4.530
106 A   107 A   108 A   109 A   110 A   111 A   112 A   113 A                  
  4.530   4.710   4.710   5.015   5.015   5.130   6.444   6.444
114 A   115 A   116 A   117 A   118 A   119 A   120 A   121 A                  
  6.689   7.156   7.156   9.927  10.599  10.824  10.824  23.038
122 A   123 A   124 A   125 A   126 A   127 A   128 A   129 A                  
 23.041  23.041  23.047  23.047  23.052  23.057  28.099  28.099
130 A   131 A   132 A   133 A   134 A   135 A   136 A   137 A                  
 28.230  28.449  28.449  40.494  40.755  40.755  57.626
138 A   139 A   140 A   141 A   142 A   143 A   144 A                          
 
 Beta MOs, Unrestricted
 -- Occupied --                  
-68.779  -6.125  -4.233  -4.233  -4.223  -0.688  -0.488  -0.488
  1 A     2 A     3 A     4 A     5 A     6 A     7 A     8 A                  
 -- Virtual --                   
  0.023   0.034   0.057   0.057   0.070   0.070   0.093   0.142
  9 A    10 A    11 A    12 A    13 A    14 A    15 A    16 A                  
  0.143   0.143   0.151   0.173   0.173   0.249   0.249   0.258
 17 A    18 A    19 A    20 A    21 A    22 A    23 A    24 A                  
  0.281   0.281   0.299   0.310   0.319   0.319   0.370   0.370
 25 A    26 A    27 A    28 A    29 A    30 A    31 A    32 A                  
  0.376   0.478   0.485   0.485   0.503   0.545   0.565   0.565
 33 A    34 A    35 A    36 A    37 A    38 A    39 A    40 A                  
  0.587   0.603   0.603   0.633   0.633   0.636   0.657   0.657
 41 A    42 A    43 A    44 A    45 A    46 A    47 A    48 A                  
  0.700   0.855   0.915   0.915   0.954   0.972   0.972   1.024
 49 A    50 A    51 A    52 A    53 A    54 A    55 A    56 A                  
  1.024   1.070   1.078   1.078   1.095   1.130   1.130   1.231
 57 A    58 A    59 A    60 A    61 A    62 A    63 A    64 A                  
  1.231   1.231   1.255   1.284   1.284   1.328   1.341   1.346
 65 A    66 A    67 A    68 A    69 A    70 A    71 A    72 A                  
  1.346   1.403   1.403   1.468   1.537   1.537   1.582   1.744
 73 A    74 A    75 A    76 A    77 A    78 A    79 A    80 A                  
  1.898   1.898   1.942   1.942   1.948   2.017   2.160   2.160
 81 A    82 A    83 A    84 A    85 A    86 A    87 A    88 A                  
  2.169   2.703   2.785   2.785   3.339   3.339   3.358   3.936
 89 A    90 A    91 A    92 A    93 A    94 A    95 A    96 A                  
  3.936   3.973   4.038   4.039   4.039   4.119   4.119   4.146
 97 A    98 A    99 A   100 A   101 A   102 A   103 A   104 A                  
  4.201   4.201   4.293   4.363   4.427   4.439   4.439   4.467
105 A   106 A   107 A   108 A   109 A   110 A   111 A   112 A                  
  4.531   4.531   4.711   4.711   5.017   5.017   5.132   6.448
113 A   114 A   115 A   116 A   117 A   118 A   119 A   120 A                  
  6.448   6.696   7.159   7.159   9.940  10.611  10.827  10.827
121 A   122 A   123 A   124 A   125 A   126 A   127 A   128 A                  
 23.040  23.043  23.043  23.048  23.048  23.053  23.058  28.107
129 A   130 A   131 A   132 A   133 A   134 A   135 A   136 A                  
 28.107  28.241  28.453  28.453  40.504  40.757  40.757  57.631
137 A   138 A   139 A   140 A   141 A   142 A   143 A   144 A                  

 Occupation and symmetry of molecular orbitals

 Point group: C1 (1 irreducible representation).

                           A     All 
 -------------------------------------
 All molecular orbitals:
  - Alpha                  144   144 
  - Beta                   144   144 
 -------------------------------------
 Alpha orbitals:
  - Frozen occupied        0     0   
  - Active occupied        9     9   
  - Active virtual         135   135 
  - Frozen virtual         0     0   
 -------------------------------------
 Beta orbitals:
  - Frozen occupied        0     0   
  - Active occupied        8     8   
  - Active virtual         136   136 
  - Frozen virtual         0     0   
 -------------------------------------

 Import integrals:   CPU 0.00 s  wall 0.00 s

 Import integrals:   CPU 233.66 s  wall 102.21 s

 MP2 amplitudes:   CPU 4.47 s  wall 5.32 s

Running a double precision version
           CCSD T amplitudes will be solved using DIIS.

           Start     Size      MaxIter   EConv     TConv     
           3         7         100       1.00e-06  1.00e-04  
 ------------------------------------------------------------------------------
           Energy (a.u.)   Ediff      Tdiff       Comment
 ------------------------------------------------------------------------------
          -291.07921753                           
     1    -291.09874524   1.95e-02   4.03e-01     Step took 02.51.
     2    -291.10448358   5.74e-03   6.08e-02     
     3    -291.10600004   1.52e-03   1.91e-02     
     4    -291.10695663   9.57e-04   1.12e-02     Switched to DIIS steps.
     5    -291.10703344   7.68e-05   2.60e-03     
     6    -291.10704676   1.33e-05   9.76e-04     
     7    -291.10705039   3.63e-06   3.81e-04     
     8    -291.10705096   5.69e-07   1.23e-04     
     9    -291.10705105   9.24e-08   5.18e-05     
 ------------------------------------------------------------------------------
          -291.10705105                           CCSD T converged.

End of double precision
 SCF energy                 = -290.64260134
 MP2 energy                 = -291.07921753
 CCSD correlation energy     =   -0.46444971
 CCSD total energy           = -291.10705105

 CCSD  T1^2 = 0.0040  T2^2 = 0.0921  Leading amplitudes:

 Amplitude    Orbitals with energies
 -0.0249       9 (A) A                   ->    16 (A) A                   
              -0.3394                          0.1280                     
 -0.0152       9 (A) A                   ->    24 (A) A                   
              -0.3394                          0.2498                     
 -0.0140       9 (A) A                   ->    34 (A) A                   
              -0.3394                          0.4492                     
 -0.0127       8 (A) A                   ->    21 (A) A                   
              -0.4954                          0.1549                     
  0.0127       7 (A) A                   ->    20 (A) A                   
              -0.4954                          0.1549                     

 Amplitude    Orbitals with energies
  0.0165       7 (A) A       7 (A) B     ->    20 (A) A      20 (A) B     
              -0.4954       -0.4878            0.1549        0.1730       
 -0.0165       7 (A) A       7 (A) B     ->    20 (A) B      20 (A) A     
              -0.4954       -0.4878            0.1730        0.1549       
 -0.0165       7 (A) B       7 (A) A     ->    20 (A) A      20 (A) B     
              -0.4878       -0.4954            0.1549        0.1730       
  0.0165       7 (A) B       7 (A) A     ->    20 (A) B      20 (A) A     
              -0.4878       -0.4954            0.1730        0.1549       
  0.0165       8 (A) A       8 (A) B     ->    21 (A) A      21 (A) B     
              -0.4954       -0.4878            0.1549        0.1730       
 -0.0165       8 (A) A       8 (A) B     ->    21 (A) B      21 (A) A     
              -0.4954       -0.4878            0.1730        0.1549       
 -0.0165       8 (A) B       8 (A) A     ->    21 (A) A      21 (A) B     
              -0.4878       -0.4954            0.1549        0.1730       
  0.0165       8 (A) B       8 (A) A     ->    21 (A) B      21 (A) A     
              -0.4878       -0.4954            0.1730        0.1549       

 Computing CCSD intemediates for later calculations in double precision
 Finished.

Running a double precision version
           CCSD Lambda amplitudes will be solved using DIIS.
           Start     Size      MaxIter   EConv     LConv     
           3         7         100       1.00e-06  1.00e-04  
 ------------------------------------------------------------------------------
            Enorm      Ldiff       Comment
 ------------------------------------------------------------------------------
     1     1.82e-02   1.56e-02     
     2     4.37e-03   2.96e-03     
     3     1.80e-03   1.02e-03     
     4     4.57e-04   6.33e-04     Switched to DIIS steps.
     5     1.49e-04   1.21e-04     
     6     5.48e-05   2.94e-05     
     7     1.94e-05   6.90e-06     
     8     6.89e-06   1.92e-06     
     9     2.06e-06   7.81e-07     
    10     7.46e-07   6.12e-08     
 ------------------------------------------------------------------------------
                                   CCSD Lambda converged.

 Computing density matrices in double precision...
           Orbital response amplitudes will be solved using DIIS.
           Start     Size      MaxIter   EConv     LConv     
           3         7         100       1.00e-06  1.00e-06  
 ------------------------------------------------------------------------------
            Enorm      Ldiff       Comment
 ------------------------------------------------------------------------------
     1     1.47e-02   7.78e-04     
     2     3.16e-03   1.10e-03     
     3     9.24e-04   5.67e-04     
     4     1.82e-04   5.05e-05     Switched to DIIS steps.
     5     3.57e-05   4.26e-05     
     6     1.08e-05   4.25e-06     
     7     3.60e-06   1.34e-06     
     8     1.29e-06   1.96e-07     
     9     2.82e-07   1.61e-07     
 ------------------------------------------------------------------------------
                                   Orbital response converged.

 Computing density matrices... Done.
 Reference state properties
 Relaxed dipole moment (a.u.): 0.015054 (X 0.000000, Y 0.000000, Z 0.015054)
 Relaxed R-squared (a.u.): 58.455706 (XX 22.199546, YY 22.199550, ZZ 14.056610)
 Relaxed density matrix was written to a file for further analysis.

 CCSD calculation:   CPU 3941.50 s  wall 5979.42 s

 Total ccman2 time:   CPU 4211.84 s  wall 6094.15 s

 
 --------------------------------------------------------------
 
                    Orbital Energies (a.u.)
 --------------------------------------------------------------
 
 Alpha MOs
 -- Occupied --
-68.785  -6.134  -4.247  -4.237  -4.237  -0.733  -0.495  -0.495
 -0.339
 -- Virtual --
  0.031   0.056   0.056   0.063   0.069   0.069   0.128   0.138
  0.138   0.145   0.155   0.155   0.247   0.247   0.250   0.264
  0.276   0.276   0.310   0.312   0.312   0.352   0.352   0.367
  0.449   0.474   0.474   0.494   0.535   0.540   0.540   0.565
  0.597   0.597   0.622   0.622   0.634   0.651   0.651   0.664
  0.843   0.908   0.908   0.950   0.969   0.969   1.019   1.019
  1.065   1.075   1.075   1.089   1.124   1.124   1.221   1.226
  1.226   1.254   1.271   1.271   1.312   1.340   1.341   1.341
  1.385   1.385   1.459   1.514   1.514   1.567   1.722   1.891
  1.891   1.932   1.932   1.938   2.009   2.147   2.158   2.158
  2.680   2.779   2.779   3.336   3.336   3.356   3.935   3.935
  3.971   4.035   4.038   4.038   4.118   4.118   4.144   4.199
  4.199   4.291   4.362   4.427   4.438   4.438   4.465   4.530
  4.530   4.710   4.710   5.015   5.015   5.130   6.444   6.444
  6.689   7.156   7.156   9.927  10.599  10.824  10.824  23.038
 23.041  23.041  23.047  23.047  23.052  23.057  28.099  28.099
 28.230  28.449  28.449  40.494  40.755  40.755  57.626
 
 Beta MOs
 -- Occupied --
-68.779  -6.125  -4.233  -4.233  -4.223  -0.688  -0.488  -0.488
 -- Virtual --
  0.023   0.034   0.057   0.057   0.070   0.070   0.093   0.142
  0.143   0.143   0.151   0.173   0.173   0.249   0.249   0.258
  0.281   0.281   0.299   0.310   0.319   0.319   0.370   0.370
  0.376   0.478   0.485   0.485   0.503   0.545   0.565   0.565
  0.587   0.603   0.603   0.633   0.633   0.636   0.657   0.657
  0.700   0.855   0.915   0.915   0.954   0.972   0.972   1.024
  1.024   1.070   1.078   1.078   1.095   1.130   1.130   1.231
  1.231   1.231   1.255   1.284   1.284   1.328   1.341   1.346
  1.346   1.403   1.403   1.468   1.537   1.537   1.582   1.744
  1.898   1.898   1.942   1.942   1.948   2.017   2.160   2.160
  2.169   2.703   2.785   2.785   3.339   3.339   3.358   3.936
  3.936   3.973   4.038   4.039   4.039   4.119   4.119   4.146
  4.201   4.201   4.293   4.363   4.427   4.439   4.439   4.467
  4.531   4.531   4.711   4.711   5.017   5.017   5.132   6.448
  6.448   6.696   7.159   7.159   9.940  10.611  10.827  10.827
 23.040  23.043  23.043  23.048  23.048  23.053  23.058  28.107
 28.107  28.241  28.453  28.453  40.504  40.757  40.757  57.631
 --------------------------------------------------------------
 
          Ground-State Mulliken Net Atomic Charges

     Atom                 Charge (a.u.)    Spin (a.u.)
  --------------------------------------------------------
      1 Si                    0.430316       0.928824
      2 H                    -0.143439       0.023725
      3 H                    -0.143439       0.023725
      4 H                    -0.143439       0.023725
  --------------------------------------------------------
  Sum of atomic charges =     0.000000
  Sum of spin   charges =     1.000000

 -----------------------------------------------------------------
                    Cartesian Multipole Moments
 -----------------------------------------------------------------
    Charge (ESU x 10^10)
                 0.0000
    Dipole Moment (Debye)
         X       0.0000      Y      -0.0000      Z       0.0383
       Tot       0.0383
    Quadrupole Moments (Debye-Ang)
        XX     -15.8826     XY      -0.0000     YY     -15.8826
        XZ      -0.0000     YZ      -0.0000     ZZ     -16.3529
    Octopole Moments (Debye-Ang^2)
       XXX       0.0000    XXY       0.7522    XYY       0.0000
       YYY      -0.7522    XXZ       0.2959    XYZ      -0.0000
       YYZ       0.2959    XZZ       0.0000    YZZ      -0.0000
       ZZZ      -1.5946
    Hexadecapole Moments (Debye-Ang^3)
      XXXX     -41.8746   XXXY      -0.0000   XXYY     -13.9582
      XYYY      -0.0000   YYYY     -41.8746   XXXZ      -0.0000
      XXYZ       0.3045   XYYZ      -0.0000   YYYZ      -0.3045
      XXZZ     -12.5106   XYZZ      -0.0000   YYZZ     -12.5106
      XZZZ      -0.0000   YZZZ       0.0000   ZZZZ     -33.5821
 -----------------------------------------------------------------
Archival summary:
1\1\n0089.mhg0\SP\ProcedureUnspecified\BasisUnspecified\i13(2)\yhljason\MonOct2617:17:032020MonOct2617:17:032020\0\\#,ProcedureUnspecified,BasisUnspecified,\\0,2\Si\H,1,1.46802\H,1,1.46802,2,110.5\H,1,1.46802,2,110.5,3,122.613,0\\HF=-290.642601\\@

 Total job time:  6134.36s(wall), 4495.09s(cpu) 
 Mon Oct 26 17:17:03 2020

        *************************************************************
        *                                                           *
        *  Thank you very much for using Q-Chem.  Have a nice day.  *
        *                                                           *
        *************************************************************


