Q-Chem Developer Version!
                  Welcome to Q-Chem
     A Quantum Leap Into The Future Of Chemistry


 Q-Chem 5.1, Q-Chem, Inc., Pleasanton, CA (2018)

 Yihan Shao,  Zhengting Gan,  E. Epifanovsky,  A. T. B. Gilbert,  M. Wormit,  
 J. Kussmann,  A. W. Lange,  A. Behn,  Jia Deng,  Xintian Feng,  D. Ghosh,  
 M. Goldey,  P. R. Horn,  L. D. Jacobson,  I. Kaliman,  T. Kus,  A. Landau,  
 Jie Liu,  E. I. Proynov,  R. M. Richard,  R. P. Steele,  E. J. Sundstrom,  
 H. L. Woodcock III,  P. M. Zimmerman,  D. Zuev,  B. Albrecht,  E. Alguire,  
 S. A. Baeppler,  D. Barton,  Z. Benda,  Y. A. Bernard,  E. J. Berquist,  
 K. B. Bravaya,  H. Burton,  D. Casanova,  Chun-Min Chang,  Yunqing Chen,  
 A. Chien,  K. D. Closser,  M. P. Coons,  S. Coriani,  S. Dasgupta,  
 A. L. Dempwolff,  M. Diedenhofen,  Hainam Do,  R. G. Edgar,  Po-Tung Fang,  
 S. Faraji,  S. Fatehi,  Qingguo Feng,  K. D. Fenk,  J. Fosso-Tande,  
 Qinghui Ge,  A. Ghysels,  G. Gidofalvi,  J. Gomes,  J. Gonthier,  A. Gunina,  
 D. Hait,  M. W. D. Hanson-Heine,  P. H. P. Harbach,  A. W. Hauser,  
 J. E. Herr,  E. G. Hohenstein,  Z. C. Holden,  Kerwin Hui,  B. C. Huynh,  
 T.-C. Jagau,  Hyunjun Ji,  B. Kaduk,  K. Khistyaev,  Jaehoon Kim,  
 P. Klunzinger,  K. Koh,  D. Kosenkov,  L. Koulias,  T. Kowalczyk,  
 C. M. Krauter,  A. Kunitsa,  Ka Un Lao,  A. Laurent,  K. V. Lawler,  
 Joonho Lee,  D. Lefrancois,  S. Lehtola,  D. S. Levine,  Yi-Pei Li,  
 You-Sheng Lin,  Fenglai Liu,  E. Livshits,  A. Luenser,  P. Manohar,  
 E. Mansoor,  S. F. Manzer,  Shan-Ping Mao,  Yuezhi Mao,  N. Mardirossian,  
 A. V. Marenich,  T. Markovich,  L. A. Martinez-Martinez,  S. A. Maurer,  
 N. J. Mayhall,  S. C. McKenzie,  J.-M. Mewes,  A. F. Morrison,  
 J. W. Mullinax,  K. Nanda,  T. S. Nguyen-Beck,  R. Olivares-Amaya,  
 J. A. Parkhill,  T. M. Perrine,  F. Plasser,  P. Pokhilko,  S. Prager,  
 A. Prociuk,  E. Ramos,  D. R. Rehn,  F. Rob,  M. Schneider,  N. Sergueev,  
 S. M. Sharada,  S. Sharma,  D. W. Small,  T. Stauch,  T. Stein,  
 Yu-Chuan Su,  A. J. W. Thom,  A. Tkatchenko,  T. Tsuchimochi,  N. M. Tubman,  
 L. Vogt,  M. L. Vidal,  O. Vydrov,  M. A. Watson,  J. Wenzel,  
 M. de Wergifosse,  T. A. Wesolowski,  A. White,  J. Witte,  A. Yamada,  
 Jun Yang,  K. Yao,  S. Yeganeh,  S. R. Yost,  Zhi-Qiang You,  A. Zech,  
 Igor Ying Zhang,  Xing Zhang,  Yan Zhao,  Ying Zhu,  B. R. Brooks,  
 G. K. L. Chan,  C. J. Cramer,  M. S. Gordon,  W. J. Hehre,  A. Klamt,  
 M. W. Schmidt,  C. D. Sherrill,  D. G. Truhlar,  A. Aspuru-Guzik,  R. Baer,  
 A. T. Bell,  N. A. Besley,  Jeng-Da Chai,  A. E. DePrince, III,  
 R. A. DiStasio Jr.,  A. Dreuw,  B. D. Dunietz,  T. R. Furlani,  
 Chao-Ping Hsu,  Yousung Jung,  Jing Kong,  D. S. Lambrecht,  WanZhen Liang,  
 C. Ochsenfeld,  V. A. Rassolov,  L. V. Slipchenko,  J. E. Subotnik,  
 T. Van Voorhis,  J. M. Herbert,  A. I. Krylov,  P. M. W. Gill,  M. Head-Gordon

 Contributors to earlier versions of Q-Chem not listed above: 
 R. D. Adamson,  B. Austin,  J. Baker,  G. J. O. Beran,  K. Brandhorst,  
 S. T. Brown,  E. F. C. Byrd,  A. K. Chakraborty,  C.-L. Cheng,  
 Siu Hung Chien,  D. M. Chipman,  D. L. Crittenden,  H. Dachsel,  
 R. J. Doerksen,  A. D. Dutoi,  L. Fusti-Molnar,  W. A. Goddard III,  
 A. Golubeva-Zadorozhnaya,  S. R. Gwaltney,  G. Hawkins,  A. Heyden,  
 S. Hirata,  G. Kedziora,  F. J. Keil,  C. Kelley,  Jihan Kim,  R. A. King,  
 R. Z. Khaliullin,  P. P. Korambath,  W. Kurlancheek,  A. M. Lee,  M. S. Lee,  
 S. V. Levchenko,  Ching Yeh Lin,  D. Liotard,  R. C. Lochan,  I. Lotan,  
 P. E. Maslen,  N. Nair,  D. P. O'Neill,  D. Neuhauser,  E. Neuscamman,  
 C. M. Oana,  R. Olson,  B. Peters,  R. Peverati,  P. A. Pieniazek,  
 Y. M. Rhee,  J. Ritchie,  M. A. Rohrdanz,  E. Rosta,  N. J. Russ,  
 H. F. Schaefer III,  N. E. Schultz,  N. Shenvi,  A. C. Simmonett,  A. Sodt,  
 D. Stuck,  K. S. Thanthiriwatte,  V. Vanovschi,  Tao Wang,  A. Warshel,  
 C. F. Williams,  Q. Wu,  X. Xu,  W. Zhang

 Please cite Q-Chem as follows:
 Y. Shao et al., Mol. Phys. 113, 184-215 (2015)
 DOI: 10.1080/00268976.2014.952696

 Q-Chem 5.1.1 for Intel X86 EM64T Linux

 Parts of Q-Chem use Armadillo 8.300.2 (Tropical Shenanigans).
 http://arma.sourceforge.net/

 Q-Chem begins on Fri Nov  6 12:39:38 2020  

Host: n0034.mhg0
0

     Scratch files written to /local/scratch/users/yhljason/BF_wB97M2_aug-cc-pcV5Z.inp20201106123935//
Input Ideriv = 2
Curr. Ideriv = -1
Max.  Ideriv = 2
Input Ideriv = 1
Curr. Ideriv = 2
Max.  Ideriv = 1

Checking the input file for inconsistencies... 	...done.

--------------------------------------------------------------
User input:
--------------------------------------------------------------
$molecule
0 1
B1	0.0000	0.0000	0.0000
F2	0.0000	0.0000	1.2669
$end

$rem
jobtype sp
method wB97M-V
xc_grid 000099000590
basis aug-cc-pcV5Z
max_scf_cycles 200
thresh 14
scf_convergence 8
scf_algorithm gdm
symmetry false
sym_ignore true
unrestricted false
gen_scfman true
mem_total 128000
n_frozen_core 500
$end



--------------------------------------------------------------
 ----------------------------------------------------------------
             Standard Nuclear Orientation (Angstroms)
    I     Atom           X                Y                Z
 ----------------------------------------------------------------
    1      B       0.0000000000     0.0000000000     0.0000000000
    2      F       0.0000000000     0.0000000000     1.2669000000
 ----------------------------------------------------------------
 Nuclear Repulsion Energy =    18.7962542316 hartrees
 There are        7 alpha and        7 beta electrons
 Requested basis set is aug-cc-pCV5Z
 There are 82 shells and 362 basis functions

 Total QAlloc Memory Limit 128000 MB
 Mega-Array Size       188 MB
 MEM_STATIC part       192 MB

                       Distance Matrix (Angstroms)
             B (  1)
   F (  2)  1.266900
 
 A cutoff of  1.0D-14 yielded   3245 shell pairs
 There are     64405 function pairs (    125027 Cartesian)
 
 -------------------------------------------------------
 OpenMP Integral Computing Module                       
 Release: version 1.0, May 2013, Q-Chem Inc. Pittsburgh 
 -------------------------------------------------------
 Integral Job Info:
 Integral job number is                      11
 Integral operator is                         1
 short-range coefficients              15000000
 long-range coefficients              100000000
 Omega coefficients                         300
 if combine SR and LR in K                    1
 Integral screening is                        0
 Integral computing path is                   2
 max size of driver memory is           6400000
 size of driver memory is               5498286
 size of scratch memory is             29851430
 max col of scratch BK array             194481
 max len of scratch array in speh3         5572
 max len of scratch index in speh4           72
 max int batch size is                      520
 min int batch size is                       52
 fixed nKL is                                30
 max L of basis functions is                  5
 order of int derivative is                   0
 number of shells is                         82
 number of basis is                         502
 number of cartesian basis is               502
 number of contracted shell pairs          3245
 number of primitive shell pairs           6824
 maxK2 (contraction) of shell pair          100
 max number of K2 of shell pair               1
 max number of CS2 of shell pair            306
 max number of PS2 of shell pair            600
 mem total for path MDJ                  998666
 -------------------------------------------------------
 Smallest overlap matrix eigenvalue = 1.48E-05

 Scale SEOQF with 1.000000e-01/1.000000e-01/1.000000e-01

 Standard Electronic Orientation quadrupole field applied
 Nucleus-field energy     =    -0.0000000015 hartrees
 Guess from superposition of atomic densities
 Warning:  Energy on first SCF cycle will be non-variational
 SAD guess density has 14.000000 electrons

 -----------------------------------------------------------------------
  General SCF calculation program by
  Eric Jon Sundstrom, Paul Horn, Yuezhi Mao, Dmitri Zuev, Alec White,
  David Stuck, Shaama M.S., Shane Yost, Joonho Lee, David Small,
  Daniel Levine, Susi Lehtola, Hugh Burton, Evgeny Epifanovsky
 -----------------------------------------------------------------------
 Exchange:     0.1500 Hartree-Fock + 1.0000 wB97M-V + LR-HF
 Correlation:  1.0000 wB97M-V
 Using Euler-Maclaurin-Lebedev (99,590) quadrature formula
 Nonlocal Correlation:  VV10 with C = 0.0100 and b = 6.00 and scale = 1.00000
 Grid used for NLC:  SG-1 standard quadrature
 using 16 threads for integral computing
 -------------------------------------------------------
 OpenMP Integral computing Module                
 Release: version 1.0, May 2013, Q-Chem Inc. Pittsburgh 
 -------------------------------------------------------
 using 16 threads for integral computing
 -------------------------------------------------------
 OpenMP Integral computing Module                
 Release: version 1.0, May 2013, Q-Chem Inc. Pittsburgh 
 -------------------------------------------------------
 -------------------------------------------------------
 OpenMP BLAS3 based DFT computing Module                
 Release: version 1.0, May 2013, Q-Chem Inc. Pittsburgh 
 -------------------------------------------------------
 -------------------------------------------------------
 OpenMP BLAS3 based DFT computing Module                
 Release: version 1.0, May 2013, Q-Chem Inc. Pittsburgh 
 -------------------------------------------------------
 -------------------------------------------------------
 OpenMP BLAS3 based DFT computing Module                
 Release: version 1.0, May 2013, Q-Chem Inc. Pittsburgh 
 -------------------------------------------------------
 Nonlocal correlation = 0.059430810380
 A restricted SCF calculation will be
 performed using Roothaan-Hall, GDM
 SCF converges when RMS gradient is below 1.0e-08
 ---------------------------------------
  Cycle       Energy         DIIS error
 ---------------------------------------
 Nonlocal correlation = 5.986163622546e-02
    1    -124.7239235024      1.00e-02  Roothaan Step
 ---------------------------------------
  Cycle       Energy        RMS Gradient
 ---------------------------------------
 Nonlocal correlation = 5.948861749832e-02
    1    -124.6735471028      5.72e-02   Normal BFGS step
 Nonlocal correlation = 5.969880902238e-02
    2    -124.6678814676      6.10e-02  Line search: overstep
 Nonlocal correlation = 5.970456586617e-02
    3    -124.6949649683      1.39e-02   Normal BFGS step
 Nonlocal correlation = 5.970124606422e-02
    4    -124.6966392711      3.47e-03   Normal BFGS step
 Nonlocal correlation = 5.970267227365e-02
    5    -124.6967219960      4.16e-04   Normal BFGS step
 Nonlocal correlation = 5.970263687908e-02
    6    -124.6967247580      8.29e-05   Normal BFGS step
 Nonlocal correlation = 5.970261114627e-02
    7    -124.6967248434      2.01e-05   Normal BFGS step
 Nonlocal correlation = 5.970261647515e-02
    8    -124.6967248457      2.20e-06   Normal BFGS step
 Nonlocal correlation = 5.970261744804e-02
    9    -124.6967248457      4.32e-07   Normal BFGS step
 Nonlocal correlation = 5.970261827753e-02
   10    -124.6967248457      1.29e-07   Normal BFGS step
 Nonlocal correlation = 5.970261799769e-02
   11    -124.6967248457      8.19e-08   Normal BFGS step
 Nonlocal correlation = 5.970261798733e-02
   12    -124.6967248457      5.49e-09  Convergence criterion met
 ---------------------------------------
 SCF time:   CPU 23636.75s  wall 1694.00s 
 SCF   energy in the final basis set =     -124.6967248457
 Total energy in the final basis set =     -124.6967248457
 
 --------------------------------------------------------------
 
                    Orbital Energies (a.u.)
 --------------------------------------------------------------
 
 Alpha MOs
 -- Occupied --
-24.985  -7.004  -1.430  -0.734  -0.641  -0.641  -0.380
 -- Virtual --
  0.015   0.015   0.022   0.035   0.053   0.053   0.097   0.109
  0.109   0.110   0.110   0.112   0.162   0.162   0.182   0.200
  0.200   0.234   0.300   0.300   0.300   0.310   0.310   0.341
  0.368   0.368   0.385   0.387   0.387   0.421   0.421   0.531
  0.531   0.583   0.612   0.618   0.618   0.635   0.635   0.706
  0.723   0.853   0.853   0.925   0.925   0.931   0.931   0.947
  0.947   0.957   0.957   0.991   0.991   1.002   1.017   1.017
  1.034   1.035   1.035   1.094   1.094   1.168   1.334   1.334
  1.356   1.516   1.516   1.527   1.527   1.596   1.600   1.600
  1.605   1.756   1.756   1.882   1.908   1.908   1.977   1.977
  2.151   2.151   2.154   2.154   2.226   2.226   2.246   2.394
  2.394   2.412   2.412   2.414   2.414   2.453   2.453   2.461
  2.461   2.475   2.530   2.530   2.538   2.538   2.639   2.692
  2.692   2.727   2.727   2.795   3.015   3.090   3.090   3.132
  3.132   3.342   3.417   3.417   3.524   3.524   3.788   3.788
  3.880   3.880   3.957   3.957   3.985   4.143   4.143   4.150
  4.236   4.236   4.326   4.425   4.425   4.860   4.860   4.894
  5.150   5.150   5.422   5.422   5.489   5.578   5.578   5.610
  5.610   5.735   5.735   5.830   5.830   5.886   5.886   5.909
  5.990   5.990   6.027   6.052   6.052   6.307   6.307   6.321
  6.321   6.424   6.424   6.848   6.897   6.897   6.942   6.942
  7.040   7.040   7.119   7.505   7.688   7.688   7.691   7.691
  7.959   7.959   8.674   8.674   8.768   8.768   8.837   8.837
  9.103   9.156   9.156   9.218   9.218   9.497   9.497   9.566
  9.566   9.622   9.623   9.623   9.705   9.974   9.974  10.831
 10.897  10.897  11.017  11.017  11.405  11.405  12.387  12.387
 12.571  13.342  13.927  13.927  14.306  15.640  16.404  16.404
 18.851  20.424  20.424  20.523  20.523  20.878  20.878  21.132
 21.132  21.183  21.242  21.242  23.761  23.761  24.007  24.007
 24.023  24.233  24.233  24.350  24.350  24.565  24.565  24.681
 24.681  25.011  25.011  25.501  25.631  25.631  26.078  26.078
 26.307  27.968  27.968  28.776  28.776  29.500  34.960  37.030
 38.684  38.684  38.802  38.802  39.128  39.128  39.468  39.667
 39.667  41.181  46.113  46.113  48.080  74.800  74.803  75.390
 75.390  75.588  78.684  78.684  79.211  79.211  79.789  90.926
 92.048  92.048  92.305  92.305  92.481  92.481  92.643 102.567
112.030 112.030 113.195 123.124 123.125 123.132 123.132 123.143
123.143 123.149 123.149 123.156 130.632 130.632 132.186 152.846
152.846 152.893 152.893 153.124 153.124 153.307 231.711 231.721
232.116 232.116 232.227 233.134 233.135 233.519 233.519 233.894
237.562 248.927 248.927 248.930 248.930 248.932 248.932 248.944
248.944 248.945 273.301 320.031 320.031 321.015 365.936 365.936
366.836 366.840 366.840 366.948 366.948 367.042 367.042 367.534
714.365 714.374 714.615 714.615 714.885 720.163 830.6711033.025
*******1034.1452543.984
 --------------------------------------------------------------
 
          Ground-State Mulliken Net Atomic Charges

     Atom                 Charge (a.u.)
  ----------------------------------------
      1 B                     0.144764
      2 F                    -0.144764
  ----------------------------------------
  Sum of atomic charges =     0.000000

 -----------------------------------------------------------------
                    Cartesian Multipole Moments
 -----------------------------------------------------------------
    Charge (ESU x 10^10)
                 0.0000
    Dipole Moment (Debye)
         X       0.0000      Y      -0.0000      Z       0.9209
       Tot       0.9209
    Quadrupole Moments (Debye-Ang)
        XX     -10.7482     XY      -0.0000     YY     -10.7482
        XZ       0.0000     YZ      -0.0000     ZZ     -12.7319
    Octopole Moments (Debye-Ang^2)
       XXX      -0.0000    XXY      -0.0000    XYY      -0.0000
       YYY      -0.0000    XXZ      -4.9927    XYZ       0.0000
       YYZ      -4.9927    XZZ      -0.0000    YZZ      -0.0000
       ZZZ     -16.2477
    Hexadecapole Moments (Debye-Ang^3)
      XXXX     -13.1844   XXXY       0.0000   XXYY      -4.3948
      XYYY       0.0000   YYYY     -13.1844   XXXZ       0.0000
      XXYZ      -0.0000   XYYZ       0.0000   YYYZ      -0.0000
      XXZZ     -12.4022   XYZZ       0.0000   YYZZ     -12.4022
      XZZZ       0.0000   YZZZ      -0.0000   ZZZZ     -61.4821
 -----------------------------------------------------------------
Archival summary:
1\1\n0034.mhg0\SP\ProcedureUnspecified\BasisUnspecified\11\yhljason\FriNov613:07:582020FriNov613:07:582020\0\\#,ProcedureUnspecified,BasisUnspecified,\\0,1\B\F,1,1.2669\\\@

 Total job time:  1700.71s(wall), 23662.81s(cpu) 
 Fri Nov  6 13:07:58 2020

        *************************************************************
        *                                                           *
        *  Thank you very much for using Q-Chem.  Have a nice day.  *
        *                                                           *
        *************************************************************


 
User input: 2 of 6 
 
Q-Chem Developer Version!
                  Welcome to Q-Chem
     A Quantum Leap Into The Future Of Chemistry


 Q-Chem 5.1, Q-Chem, Inc., Pleasanton, CA (2018)

 Yihan Shao,  Zhengting Gan,  E. Epifanovsky,  A. T. B. Gilbert,  M. Wormit,  
 J. Kussmann,  A. W. Lange,  A. Behn,  Jia Deng,  Xintian Feng,  D. Ghosh,  
 M. Goldey,  P. R. Horn,  L. D. Jacobson,  I. Kaliman,  T. Kus,  A. Landau,  
 Jie Liu,  E. I. Proynov,  R. M. Richard,  R. P. Steele,  E. J. Sundstrom,  
 H. L. Woodcock III,  P. M. Zimmerman,  D. Zuev,  B. Albrecht,  E. Alguire,  
 S. A. Baeppler,  D. Barton,  Z. Benda,  Y. A. Bernard,  E. J. Berquist,  
 K. B. Bravaya,  H. Burton,  D. Casanova,  Chun-Min Chang,  Yunqing Chen,  
 A. Chien,  K. D. Closser,  M. P. Coons,  S. Coriani,  S. Dasgupta,  
 A. L. Dempwolff,  M. Diedenhofen,  Hainam Do,  R. G. Edgar,  Po-Tung Fang,  
 S. Faraji,  S. Fatehi,  Qingguo Feng,  K. D. Fenk,  J. Fosso-Tande,  
 Qinghui Ge,  A. Ghysels,  G. Gidofalvi,  J. Gomes,  J. Gonthier,  A. Gunina,  
 D. Hait,  M. W. D. Hanson-Heine,  P. H. P. Harbach,  A. W. Hauser,  
 J. E. Herr,  E. G. Hohenstein,  Z. C. Holden,  Kerwin Hui,  B. C. Huynh,  
 T.-C. Jagau,  Hyunjun Ji,  B. Kaduk,  K. Khistyaev,  Jaehoon Kim,  
 P. Klunzinger,  K. Koh,  D. Kosenkov,  L. Koulias,  T. Kowalczyk,  
 C. M. Krauter,  A. Kunitsa,  Ka Un Lao,  A. Laurent,  K. V. Lawler,  
 Joonho Lee,  D. Lefrancois,  S. Lehtola,  D. S. Levine,  Yi-Pei Li,  
 You-Sheng Lin,  Fenglai Liu,  E. Livshits,  A. Luenser,  P. Manohar,  
 E. Mansoor,  S. F. Manzer,  Shan-Ping Mao,  Yuezhi Mao,  N. Mardirossian,  
 A. V. Marenich,  T. Markovich,  L. A. Martinez-Martinez,  S. A. Maurer,  
 N. J. Mayhall,  S. C. McKenzie,  J.-M. Mewes,  A. F. Morrison,  
 J. W. Mullinax,  K. Nanda,  T. S. Nguyen-Beck,  R. Olivares-Amaya,  
 J. A. Parkhill,  T. M. Perrine,  F. Plasser,  P. Pokhilko,  S. Prager,  
 A. Prociuk,  E. Ramos,  D. R. Rehn,  F. Rob,  M. Schneider,  N. Sergueev,  
 S. M. Sharada,  S. Sharma,  D. W. Small,  T. Stauch,  T. Stein,  
 Yu-Chuan Su,  A. J. W. Thom,  A. Tkatchenko,  T. Tsuchimochi,  N. M. Tubman,  
 L. Vogt,  M. L. Vidal,  O. Vydrov,  M. A. Watson,  J. Wenzel,  
 M. de Wergifosse,  T. A. Wesolowski,  A. White,  J. Witte,  A. Yamada,  
 Jun Yang,  K. Yao,  S. Yeganeh,  S. R. Yost,  Zhi-Qiang You,  A. Zech,  
 Igor Ying Zhang,  Xing Zhang,  Yan Zhao,  Ying Zhu,  B. R. Brooks,  
 G. K. L. Chan,  C. J. Cramer,  M. S. Gordon,  W. J. Hehre,  A. Klamt,  
 M. W. Schmidt,  C. D. Sherrill,  D. G. Truhlar,  A. Aspuru-Guzik,  R. Baer,  
 A. T. Bell,  N. A. Besley,  Jeng-Da Chai,  A. E. DePrince, III,  
 R. A. DiStasio Jr.,  A. Dreuw,  B. D. Dunietz,  T. R. Furlani,  
 Chao-Ping Hsu,  Yousung Jung,  Jing Kong,  D. S. Lambrecht,  WanZhen Liang,  
 C. Ochsenfeld,  V. A. Rassolov,  L. V. Slipchenko,  J. E. Subotnik,  
 T. Van Voorhis,  J. M. Herbert,  A. I. Krylov,  P. M. W. Gill,  M. Head-Gordon

 Contributors to earlier versions of Q-Chem not listed above: 
 R. D. Adamson,  B. Austin,  J. Baker,  G. J. O. Beran,  K. Brandhorst,  
 S. T. Brown,  E. F. C. Byrd,  A. K. Chakraborty,  C.-L. Cheng,  
 Siu Hung Chien,  D. M. Chipman,  D. L. Crittenden,  H. Dachsel,  
 R. J. Doerksen,  A. D. Dutoi,  L. Fusti-Molnar,  W. A. Goddard III,  
 A. Golubeva-Zadorozhnaya,  S. R. Gwaltney,  G. Hawkins,  A. Heyden,  
 S. Hirata,  G. Kedziora,  F. J. Keil,  C. Kelley,  Jihan Kim,  R. A. King,  
 R. Z. Khaliullin,  P. P. Korambath,  W. Kurlancheek,  A. M. Lee,  M. S. Lee,  
 S. V. Levchenko,  Ching Yeh Lin,  D. Liotard,  R. C. Lochan,  I. Lotan,  
 P. E. Maslen,  N. Nair,  D. P. O'Neill,  D. Neuhauser,  E. Neuscamman,  
 C. M. Oana,  R. Olson,  B. Peters,  R. Peverati,  P. A. Pieniazek,  
 Y. M. Rhee,  J. Ritchie,  M. A. Rohrdanz,  E. Rosta,  N. J. Russ,  
 H. F. Schaefer III,  N. E. Schultz,  N. Shenvi,  A. C. Simmonett,  A. Sodt,  
 D. Stuck,  K. S. Thanthiriwatte,  V. Vanovschi,  Tao Wang,  A. Warshel,  
 C. F. Williams,  Q. Wu,  X. Xu,  W. Zhang

 Please cite Q-Chem as follows:
 Y. Shao et al., Mol. Phys. 113, 184-215 (2015)
 DOI: 10.1080/00268976.2014.952696

 Q-Chem 5.1.1 for Intel X86 EM64T Linux

 Parts of Q-Chem use Armadillo 8.300.2 (Tropical Shenanigans).
 http://arma.sourceforge.net/

 Q-Chem begins on Fri Nov  6 13:07:59 2020  

Host: n0034.mhg0
0

     Scratch files written to /local/scratch/users/yhljason/BF_wB97M2_aug-cc-pcV5Z.inp20201106123935//
The previous job contains 0 fragments, simply inherited here
Input Ideriv = 0
Curr. Ideriv = -1
Max.  Ideriv = 0
Analytic post-HF gradients are not available with non-HF exchange
Input Ideriv = 0
Curr. Ideriv = 0
Max.  Ideriv = 0

Checking the input file for inconsistencies... 	...done.

--------------------------------------------------------------
User input:
--------------------------------------------------------------
$molecule
read
$end

$rem
jobtype sp
exchange wB97M(2)
xc_grid 000099000590
basis aug-cc-pcV5Z
max_scf_cycles 200
thresh 14
scf_convergence 8
scf_algorithm gdm
symmetry false
sym_ignore true
unrestricted false
gen_scfman false
mem_total 128000
cc_memory 96000
cc_backend xm
mem_static 1500
n_frozen_core 500
scf_guess read
$end



--------------------------------------------------------------
 ----------------------------------------------------------------
             Standard Nuclear Orientation (Angstroms)
    I     Atom           X                Y                Z
 ----------------------------------------------------------------
    1      B       0.0000000000     0.0000000000     0.0000000000
    2      F       0.0000000000     0.0000000000     1.2669000000
 ----------------------------------------------------------------
 Nuclear Repulsion Energy =    18.7962542316 hartrees
 There are        7 alpha and        7 beta electrons
 Requested basis set is aug-cc-pCV5Z
 There are 82 shells and 362 basis functions

 Total QAlloc Memory Limit 128000 MB
 Mega-Array Size      1467 MB
 MEM_STATIC part      1500 MB

                       Distance Matrix (Angstroms)
             B (  1)
   F (  2)  1.266900
 
 A cutoff of  1.0D-14 yielded   3245 shell pairs
 There are     64405 function pairs (    125027 Cartesian)
 
 -------------------------------------------------------
 OpenMP Integral Computing Module                       
 Release: version 1.0, May 2013, Q-Chem Inc. Pittsburgh 
 -------------------------------------------------------
 Integral Job Info:
 Integral job number is                      11
 Integral operator is                         1
 short-range coefficients              15000000
 long-range coefficients              100000000
 Omega coefficients                         300
 if combine SR and LR in K                    1
 Integral screening is                        0
 Integral computing path is                   2
 max size of driver memory is           6400000
 size of driver memory is               5498286
 size of scratch memory is             29851430
 max col of scratch BK array             194481
 max len of scratch array in speh3         5572
 max len of scratch index in speh4           72
 max int batch size is                      520
 min int batch size is                       52
 fixed nKL is                                30
 max L of basis functions is                  5
 order of int derivative is                   0
 number of shells is                         82
 number of basis is                         502
 number of cartesian basis is               502
 number of contracted shell pairs          3245
 number of primitive shell pairs           6824
 maxK2 (contraction) of shell pair          100
 max number of K2 of shell pair               1
 max number of CS2 of shell pair            306
 max number of PS2 of shell pair            600
 mem total for path MDJ                  998666
 -------------------------------------------------------
 Smallest overlap matrix eigenvalue = 1.48E-05

 Scale SEOQF with 1.000000e-01/1.000000e-01/1.000000e-01

 Standard Electronic Orientation quadrupole field applied
 Nucleus-field energy     =    -0.0000000015 hartrees
 Guess MOs from SCF MO coefficient file
 Reading MOs from coefficient file
 Reading MOs from coefficient file
 Long-range K will be added via erf
 Coulomb attenuation parameter = 0.3 bohr**(-1)
 A restricted hybrid HF-DFT SCF calculation will be
 performed using Geometric Direct Minimization
 Exchange:     0.1500 Hartree-Fock + 1.0000 wB97M-V + LR-HF
 Correlation:  1.0000 wB97M-V
 Using Euler-Maclaurin-Lebedev (99,590) quadrature formula
 Nonlocal Correlation:  VV10 with C = 0.0100 and b = 6.00 and scale = 1.00000
 Grid used for NLC:  SG-1 standard quadrature
 SCF converges when RMS gradient is below 1.0E-08
Using Q-Chem read-in guess as SCF_GUESS READ specified.

 using 16 threads for integral computing
 -------------------------------------------------------
 OpenMP Integral computing Module                
 Release: version 1.0, May 2013, Q-Chem Inc. Pittsburgh 
 -------------------------------------------------------
 using 16 threads for integral computing
 -------------------------------------------------------
 OpenMP Integral computing Module                
 Release: version 1.0, May 2013, Q-Chem Inc. Pittsburgh 
 -------------------------------------------------------
TIMEINFO->: J/JK contribution 1766.52 sec.
 -------------------------------------------------------
 OpenMP BLAS3 based DFT computing Module                
 Release: version 1.0, May 2013, Q-Chem Inc. Pittsburgh 
 -------------------------------------------------------
 -------------------------------------------------------
 OpenMP BLAS3 based DFT computing Module                
 Release: version 1.0, May 2013, Q-Chem Inc. Pittsburgh 
 -------------------------------------------------------
 -------------------------------------------------------
 OpenMP BLAS3 based DFT computing Module                
 Release: version 1.0, May 2013, Q-Chem Inc. Pittsburgh 
 -------------------------------------------------------
 ---------------------------------------
  Cycle       Energy        RMS Gradient
 ---------------------------------------
    1    -124.6967248457      5.06E-10 Normal BFGS step
TIMEINFO->: J/JK contribution 1757.88 sec.
 Nonlocal correlation =     0.0191470066
    2    -124.6967248457      2.05E-10 Convergence criterion met
 ---------------------------------------
 wB97M-V orbitals are now ready for the wB97M(2) calculation.
 wB97M(2) energy = Exch (0.62194 SRHF + 1.0 LRHF + wB97M(2)_EXCH) + 
               Corr (wB97M(2)_CORR + 0.34096 MP2 + 0.65904 VV10(b=10))
 SCF time:  CPU 6975.04 s  wall 500.45 s
 SCF   energy in the final basis set = -124.60799533
 Total energy in the final basis set = -124.60799533

 Q-Chem fatal error occurred in module libmdc/qalloc.C, line 49:

 Illegal memory length in mega_alloc


 Please submit a crash report at q-chem.com/reporter 
 
 
 
User input: 3 of 6 
 
Q-Chem Developer Version!
                  Welcome to Q-Chem
     A Quantum Leap Into The Future Of Chemistry


 Q-Chem 5.1, Q-Chem, Inc., Pleasanton, CA (2018)

 Yihan Shao,  Zhengting Gan,  E. Epifanovsky,  A. T. B. Gilbert,  M. Wormit,  
 J. Kussmann,  A. W. Lange,  A. Behn,  Jia Deng,  Xintian Feng,  D. Ghosh,  
 M. Goldey,  P. R. Horn,  L. D. Jacobson,  I. Kaliman,  T. Kus,  A. Landau,  
 Jie Liu,  E. I. Proynov,  R. M. Richard,  R. P. Steele,  E. J. Sundstrom,  
 H. L. Woodcock III,  P. M. Zimmerman,  D. Zuev,  B. Albrecht,  E. Alguire,  
 S. A. Baeppler,  D. Barton,  Z. Benda,  Y. A. Bernard,  E. J. Berquist,  
 K. B. Bravaya,  H. Burton,  D. Casanova,  Chun-Min Chang,  Yunqing Chen,  
 A. Chien,  K. D. Closser,  M. P. Coons,  S. Coriani,  S. Dasgupta,  
 A. L. Dempwolff,  M. Diedenhofen,  Hainam Do,  R. G. Edgar,  Po-Tung Fang,  
 S. Faraji,  S. Fatehi,  Qingguo Feng,  K. D. Fenk,  J. Fosso-Tande,  
 Qinghui Ge,  A. Ghysels,  G. Gidofalvi,  J. Gomes,  J. Gonthier,  A. Gunina,  
 D. Hait,  M. W. D. Hanson-Heine,  P. H. P. Harbach,  A. W. Hauser,  
 J. E. Herr,  E. G. Hohenstein,  Z. C. Holden,  Kerwin Hui,  B. C. Huynh,  
 T.-C. Jagau,  Hyunjun Ji,  B. Kaduk,  K. Khistyaev,  Jaehoon Kim,  
 P. Klunzinger,  K. Koh,  D. Kosenkov,  L. Koulias,  T. Kowalczyk,  
 C. M. Krauter,  A. Kunitsa,  Ka Un Lao,  A. Laurent,  K. V. Lawler,  
 Joonho Lee,  D. Lefrancois,  S. Lehtola,  D. S. Levine,  Yi-Pei Li,  
 You-Sheng Lin,  Fenglai Liu,  E. Livshits,  A. Luenser,  P. Manohar,  
 E. Mansoor,  S. F. Manzer,  Shan-Ping Mao,  Yuezhi Mao,  N. Mardirossian,  
 A. V. Marenich,  T. Markovich,  L. A. Martinez-Martinez,  S. A. Maurer,  
 N. J. Mayhall,  S. C. McKenzie,  J.-M. Mewes,  A. F. Morrison,  
 J. W. Mullinax,  K. Nanda,  T. S. Nguyen-Beck,  R. Olivares-Amaya,  
 J. A. Parkhill,  T. M. Perrine,  F. Plasser,  P. Pokhilko,  S. Prager,  
 A. Prociuk,  E. Ramos,  D. R. Rehn,  F. Rob,  M. Schneider,  N. Sergueev,  
 S. M. Sharada,  S. Sharma,  D. W. Small,  T. Stauch,  T. Stein,  
 Yu-Chuan Su,  A. J. W. Thom,  A. Tkatchenko,  T. Tsuchimochi,  N. M. Tubman,  
 L. Vogt,  M. L. Vidal,  O. Vydrov,  M. A. Watson,  J. Wenzel,  
 M. de Wergifosse,  T. A. Wesolowski,  A. White,  J. Witte,  A. Yamada,  
 Jun Yang,  K. Yao,  S. Yeganeh,  S. R. Yost,  Zhi-Qiang You,  A. Zech,  
 Igor Ying Zhang,  Xing Zhang,  Yan Zhao,  Ying Zhu,  B. R. Brooks,  
 G. K. L. Chan,  C. J. Cramer,  M. S. Gordon,  W. J. Hehre,  A. Klamt,  
 M. W. Schmidt,  C. D. Sherrill,  D. G. Truhlar,  A. Aspuru-Guzik,  R. Baer,  
 A. T. Bell,  N. A. Besley,  Jeng-Da Chai,  A. E. DePrince, III,  
 R. A. DiStasio Jr.,  A. Dreuw,  B. D. Dunietz,  T. R. Furlani,  
 Chao-Ping Hsu,  Yousung Jung,  Jing Kong,  D. S. Lambrecht,  WanZhen Liang,  
 C. Ochsenfeld,  V. A. Rassolov,  L. V. Slipchenko,  J. E. Subotnik,  
 T. Van Voorhis,  J. M. Herbert,  A. I. Krylov,  P. M. W. Gill,  M. Head-Gordon

 Contributors to earlier versions of Q-Chem not listed above: 
 R. D. Adamson,  B. Austin,  J. Baker,  G. J. O. Beran,  K. Brandhorst,  
 S. T. Brown,  E. F. C. Byrd,  A. K. Chakraborty,  C.-L. Cheng,  
 Siu Hung Chien,  D. M. Chipman,  D. L. Crittenden,  H. Dachsel,  
 R. J. Doerksen,  A. D. Dutoi,  L. Fusti-Molnar,  W. A. Goddard III,  
 A. Golubeva-Zadorozhnaya,  S. R. Gwaltney,  G. Hawkins,  A. Heyden,  
 S. Hirata,  G. Kedziora,  F. J. Keil,  C. Kelley,  Jihan Kim,  R. A. King,  
 R. Z. Khaliullin,  P. P. Korambath,  W. Kurlancheek,  A. M. Lee,  M. S. Lee,  
 S. V. Levchenko,  Ching Yeh Lin,  D. Liotard,  R. C. Lochan,  I. Lotan,  
 P. E. Maslen,  N. Nair,  D. P. O'Neill,  D. Neuhauser,  E. Neuscamman,  
 C. M. Oana,  R. Olson,  B. Peters,  R. Peverati,  P. A. Pieniazek,  
 Y. M. Rhee,  J. Ritchie,  M. A. Rohrdanz,  E. Rosta,  N. J. Russ,  
 H. F. Schaefer III,  N. E. Schultz,  N. Shenvi,  A. C. Simmonett,  A. Sodt,  
 D. Stuck,  K. S. Thanthiriwatte,  V. Vanovschi,  Tao Wang,  A. Warshel,  
 C. F. Williams,  Q. Wu,  X. Xu,  W. Zhang

 Please cite Q-Chem as follows:
 Y. Shao et al., Mol. Phys. 113, 184-215 (2015)
 DOI: 10.1080/00268976.2014.952696

 Q-Chem 5.1.1 for Intel X86 EM64T Linux

 Parts of Q-Chem use Armadillo 8.300.2 (Tropical Shenanigans).
 http://arma.sourceforge.net/

 Q-Chem begins on Fri Nov  6 13:16:25 2020  

Host: n0034.mhg0
0

     Scratch files written to /local/scratch/users/yhljason/BF_wB97M2_aug-cc-pcV5Z.inp20201106123935//
The previous job contains 0 fragments, simply inherited here
Input Ideriv = 2
Curr. Ideriv = -1
Max.  Ideriv = 2
Input Ideriv = 1
Curr. Ideriv = 2
Max.  Ideriv = 1

Checking the input file for inconsistencies... 	...done.

--------------------------------------------------------------
User input:
--------------------------------------------------------------
$molecule
read
$end

$rem

jobtype sp
method wb97m-v
xc_grid 000099000590
basis aug-cc-pcV5Z
max_scf_cycles 200
thresh 14
scf_convergence 8
mem_total 128000
cc_memory 96000
cc_backend xm
mem_static 1500
symmetry false
sym_ignore true
scf_guess read
unrestricted false
scf_algorithm gdm
n_frozen_core 500
gen_scfman true
$end

$multipole_field
Z 0.0001
$end



--------------------------------------------------------------
 ----------------------------------------------------------------
             Standard Nuclear Orientation (Angstroms)
    I     Atom           X                Y                Z
 ----------------------------------------------------------------
    1      B       0.0000000000     0.0000000000     0.0000000000
    2      F       0.0000000000     0.0000000000     1.2669000000
 ----------------------------------------------------------------
 Nuclear Repulsion Energy =    18.7962542316 hartrees
 There are        7 alpha and        7 beta electrons
 Requested basis set is aug-cc-pCV5Z
 There are 82 shells and 362 basis functions

 Total QAlloc Memory Limit 128000 MB
 Mega-Array Size      1467 MB
 MEM_STATIC part      1500 MB

                       Distance Matrix (Angstroms)
             B (  1)
   F (  2)  1.266900
 
 Applying Cartesian multipole field
    Component          Value
    ---------          -----
     (0,0,1)        1.00000E-04
 Nucleus-field energy     =     0.0021546846 hartrees
 A cutoff of  1.0D-14 yielded   3245 shell pairs
 There are     64405 function pairs (    125027 Cartesian)
 
 -------------------------------------------------------
 OpenMP Integral Computing Module                       
 Release: version 1.0, May 2013, Q-Chem Inc. Pittsburgh 
 -------------------------------------------------------
 Integral Job Info:
 Integral job number is                      11
 Integral operator is                         1
 short-range coefficients              15000000
 long-range coefficients              100000000
 Omega coefficients                         300
 if combine SR and LR in K                    1
 Integral screening is                        0
 Integral computing path is                   2
 max size of driver memory is           6400000
 size of driver memory is               5498286
 size of scratch memory is             29851430
 max col of scratch BK array             194481
 max len of scratch array in speh3         5572
 max len of scratch index in speh4           72
 max int batch size is                      520
 min int batch size is                       52
 fixed nKL is                                30
 max L of basis functions is                  5
 order of int derivative is                   0
 number of shells is                         82
 number of basis is                         502
 number of cartesian basis is               502
 number of contracted shell pairs          3245
 number of primitive shell pairs           6824
 maxK2 (contraction) of shell pair          100
 max number of K2 of shell pair               1
 max number of CS2 of shell pair            306
 max number of PS2 of shell pair            600
 mem total for path MDJ                  998666
 -------------------------------------------------------
 Smallest overlap matrix eigenvalue = 1.48E-05
 Guess MOs from SCF MO coefficient file

 -----------------------------------------------------------------------
  General SCF calculation program by
  Eric Jon Sundstrom, Paul Horn, Yuezhi Mao, Dmitri Zuev, Alec White,
  David Stuck, Shaama M.S., Shane Yost, Joonho Lee, David Small,
  Daniel Levine, Susi Lehtola, Hugh Burton, Evgeny Epifanovsky
 -----------------------------------------------------------------------
 Exchange:     0.1500 Hartree-Fock + 1.0000 wB97M-V + LR-HF
 Correlation:  1.0000 wB97M-V
 Using Euler-Maclaurin-Lebedev (99,590) quadrature formula
 Nonlocal Correlation:  VV10 with C = 0.0100 and b = 6.00 and scale = 1.00000
 Grid used for NLC:  SG-1 standard quadrature
 using 16 threads for integral computing
 -------------------------------------------------------
 OpenMP Integral computing Module                
 Release: version 1.0, May 2013, Q-Chem Inc. Pittsburgh 
 -------------------------------------------------------
 using 16 threads for integral computing
 -------------------------------------------------------
 OpenMP Integral computing Module                
 Release: version 1.0, May 2013, Q-Chem Inc. Pittsburgh 
 -------------------------------------------------------
 -------------------------------------------------------
 OpenMP BLAS3 based DFT computing Module                
 Release: version 1.0, May 2013, Q-Chem Inc. Pittsburgh 
 -------------------------------------------------------
 -------------------------------------------------------
 OpenMP BLAS3 based DFT computing Module                
 Release: version 1.0, May 2013, Q-Chem Inc. Pittsburgh 
 -------------------------------------------------------
 -------------------------------------------------------
 OpenMP BLAS3 based DFT computing Module                
 Release: version 1.0, May 2013, Q-Chem Inc. Pittsburgh 
 -------------------------------------------------------
 Nonlocal correlation = 0.059702617989
 A restricted SCF calculation will be
 performed using GDM
 SCF converges when RMS gradient is below 1.0e-08
 ---------------------------------------
  Cycle       Energy        RMS Gradient
 ---------------------------------------
 Nonlocal correlation = 5.970264854859e-02
    1    -124.6966886141      1.39e-04   Normal BFGS step
 Nonlocal correlation = 5.970241497650e-02
    2    -124.6966886947      3.70e-05   Normal BFGS step
 Nonlocal correlation = 5.970252743451e-02
    3    -124.6966887035      2.55e-05   Normal BFGS step
 Nonlocal correlation = 5.970252239486e-02
    4    -124.6966887089      2.04e-06   Normal BFGS step
 Nonlocal correlation = 5.970252244175e-02
    5    -124.6966887090      6.74e-07   Normal BFGS step
 Nonlocal correlation = 5.970252237514e-02
    6    -124.6966887090      1.02e-07   Normal BFGS step
 Nonlocal correlation = 5.970252231276e-02
    7    -124.6966887090      2.53e-08   Normal BFGS step
 Nonlocal correlation = 5.970252230531e-02
    8    -124.6966887090      4.86e-09  Convergence criterion met
 ---------------------------------------
 SCF time:   CPU 16221.25s  wall 1161.00s 
 SCF   energy in the final basis set =     -124.6966887090
 Total energy in the final basis set =     -124.6966887090
 
 --------------------------------------------------------------
 
                    Orbital Energies (a.u.)
 --------------------------------------------------------------
 
 Alpha MOs
 -- Occupied --
-24.986  -7.004  -1.431  -0.734  -0.641  -0.641  -0.380
 -- Virtual --
  0.015   0.015   0.022   0.035   0.053   0.053   0.097   0.109
  0.109   0.110   0.110   0.112   0.162   0.162   0.182   0.200
  0.200   0.234   0.300   0.300   0.300   0.310   0.310   0.341
  0.369   0.369   0.385   0.387   0.387   0.420   0.420   0.531
  0.531   0.583   0.612   0.617   0.617   0.635   0.635   0.705
  0.723   0.852   0.852   0.925   0.925   0.931   0.931   0.947
  0.947   0.957   0.957   0.991   0.991   1.002   1.017   1.017
  1.034   1.035   1.035   1.094   1.094   1.168   1.334   1.334
  1.356   1.516   1.516   1.527   1.527   1.595   1.600   1.600
  1.605   1.756   1.756   1.882   1.908   1.908   1.977   1.977
  2.151   2.151   2.154   2.154   2.226   2.226   2.246   2.394
  2.394   2.412   2.412   2.414   2.414   2.453   2.453   2.461
  2.461   2.475   2.530   2.530   2.538   2.538   2.639   2.692
  2.692   2.727   2.727   2.795   3.015   3.090   3.090   3.132
  3.132   3.341   3.417   3.417   3.524   3.524   3.787   3.787
  3.880   3.880   3.957   3.957   3.985   4.143   4.143   4.150
  4.236   4.236   4.326   4.425   4.425   4.860   4.860   4.894
  5.150   5.150   5.422   5.422   5.489   5.578   5.578   5.610
  5.610   5.735   5.735   5.830   5.830   5.886   5.886   5.909
  5.990   5.990   6.027   6.052   6.052   6.307   6.307   6.321
  6.321   6.424   6.424   6.848   6.897   6.897   6.942   6.942
  7.040   7.040   7.119   7.505   7.687   7.687   7.691   7.691
  7.959   7.959   8.674   8.674   8.768   8.768   8.837   8.837
  9.103   9.156   9.156   9.218   9.218   9.497   9.497   9.566
  9.566   9.622   9.623   9.623   9.705   9.974   9.974  10.831
 10.897  10.897  11.017  11.017  11.405  11.405  12.387  12.387
 12.571  13.342  13.927  13.927  14.306  15.640  16.404  16.404
 18.851  20.424  20.424  20.523  20.523  20.878  20.878  21.132
 21.132  21.183  21.242  21.242  23.760  23.761  24.007  24.007
 24.023  24.233  24.233  24.350  24.350  24.565  24.565  24.681
 24.681  25.011  25.011  25.501  25.631  25.631  26.078  26.078
 26.307  27.968  27.968  28.775  28.775  29.500  34.960  37.030
 38.684  38.684  38.802  38.802  39.128  39.128  39.468  39.667
 39.667  41.181  46.112  46.112  48.080  74.800  74.803  75.390
 75.390  75.588  78.684  78.684  79.211  79.211  79.789  90.926
 92.048  92.048  92.305  92.305  92.481  92.481  92.643 102.567
112.030 112.030 113.195 123.124 123.125 123.132 123.132 123.143
123.143 123.149 123.149 123.156 130.632 130.632 132.186 152.846
152.846 152.893 152.893 153.124 153.124 153.307 231.711 231.721
232.116 232.116 232.227 233.134 233.135 233.519 233.519 233.894
237.562 248.927 248.927 248.930 248.930 248.932 248.932 248.944
248.944 248.945 273.301 320.031 320.031 321.015 365.936 365.936
366.836 366.840 366.840 366.948 366.948 367.042 367.042 367.534
714.365 714.374 714.614 714.614 714.885 720.163 830.6711033.025
*******1034.1452543.984
 --------------------------------------------------------------
 
          Ground-State Mulliken Net Atomic Charges

     Atom                 Charge (a.u.)
  ----------------------------------------
      1 B                     0.144850
      2 F                    -0.144850
  ----------------------------------------
  Sum of atomic charges =     0.000000

 -----------------------------------------------------------------
                    Cartesian Multipole Moments
 -----------------------------------------------------------------
    Charge (ESU x 10^10)
                 0.0000
    Dipole Moment (Debye)
         X      -0.0000      Y      -0.0000      Z       0.9161
       Tot       0.9161
    Quadrupole Moments (Debye-Ang)
        XX     -10.7483     XY       0.0000     YY     -10.7483
        XZ      -0.0000     YZ       0.0000     ZZ     -12.7329
    Octopole Moments (Debye-Ang^2)
       XXX       0.0000    XXY      -0.0000    XYY       0.0000
       YYY      -0.0000    XXZ      -4.9963    XYZ       0.0000
       YYZ      -4.9963    XZZ       0.0000    YZZ       0.0000
       ZZZ     -16.2650
    Hexadecapole Moments (Debye-Ang^3)
      XXXX     -13.1843   XXXY       0.0000   XXYY      -4.3948
      XYYY       0.0000   YYYY     -13.1843   XXXZ      -0.0000
      XXYZ       0.0000   XYYZ      -0.0000   YYYZ       0.0000
      XXZZ     -12.4016   XYZZ       0.0000   YYZZ     -12.4016
      XZZZ      -0.0000   YZZZ       0.0000   ZZZZ     -61.4885
 -----------------------------------------------------------------
Archival summary:
1\1\n0034.mhg0\SP\ProcedureUnspecified\BasisUnspecified\11\yhljason\FriNov613:35:532020FriNov613:35:532020\0\\#,ProcedureUnspecified,BasisUnspecified,\\0,1\B\F,1,1.2669\\\@

 Total job time:  1167.25s(wall), 16244.77s(cpu) 
 Fri Nov  6 13:35:53 2020

        *************************************************************
        *                                                           *
        *  Thank you very much for using Q-Chem.  Have a nice day.  *
        *                                                           *
        *************************************************************


 
User input: 4 of 6 
 
Q-Chem Developer Version!
                  Welcome to Q-Chem
     A Quantum Leap Into The Future Of Chemistry


 Q-Chem 5.1, Q-Chem, Inc., Pleasanton, CA (2018)

 Yihan Shao,  Zhengting Gan,  E. Epifanovsky,  A. T. B. Gilbert,  M. Wormit,  
 J. Kussmann,  A. W. Lange,  A. Behn,  Jia Deng,  Xintian Feng,  D. Ghosh,  
 M. Goldey,  P. R. Horn,  L. D. Jacobson,  I. Kaliman,  T. Kus,  A. Landau,  
 Jie Liu,  E. I. Proynov,  R. M. Richard,  R. P. Steele,  E. J. Sundstrom,  
 H. L. Woodcock III,  P. M. Zimmerman,  D. Zuev,  B. Albrecht,  E. Alguire,  
 S. A. Baeppler,  D. Barton,  Z. Benda,  Y. A. Bernard,  E. J. Berquist,  
 K. B. Bravaya,  H. Burton,  D. Casanova,  Chun-Min Chang,  Yunqing Chen,  
 A. Chien,  K. D. Closser,  M. P. Coons,  S. Coriani,  S. Dasgupta,  
 A. L. Dempwolff,  M. Diedenhofen,  Hainam Do,  R. G. Edgar,  Po-Tung Fang,  
 S. Faraji,  S. Fatehi,  Qingguo Feng,  K. D. Fenk,  J. Fosso-Tande,  
 Qinghui Ge,  A. Ghysels,  G. Gidofalvi,  J. Gomes,  J. Gonthier,  A. Gunina,  
 D. Hait,  M. W. D. Hanson-Heine,  P. H. P. Harbach,  A. W. Hauser,  
 J. E. Herr,  E. G. Hohenstein,  Z. C. Holden,  Kerwin Hui,  B. C. Huynh,  
 T.-C. Jagau,  Hyunjun Ji,  B. Kaduk,  K. Khistyaev,  Jaehoon Kim,  
 P. Klunzinger,  K. Koh,  D. Kosenkov,  L. Koulias,  T. Kowalczyk,  
 C. M. Krauter,  A. Kunitsa,  Ka Un Lao,  A. Laurent,  K. V. Lawler,  
 Joonho Lee,  D. Lefrancois,  S. Lehtola,  D. S. Levine,  Yi-Pei Li,  
 You-Sheng Lin,  Fenglai Liu,  E. Livshits,  A. Luenser,  P. Manohar,  
 E. Mansoor,  S. F. Manzer,  Shan-Ping Mao,  Yuezhi Mao,  N. Mardirossian,  
 A. V. Marenich,  T. Markovich,  L. A. Martinez-Martinez,  S. A. Maurer,  
 N. J. Mayhall,  S. C. McKenzie,  J.-M. Mewes,  A. F. Morrison,  
 J. W. Mullinax,  K. Nanda,  T. S. Nguyen-Beck,  R. Olivares-Amaya,  
 J. A. Parkhill,  T. M. Perrine,  F. Plasser,  P. Pokhilko,  S. Prager,  
 A. Prociuk,  E. Ramos,  D. R. Rehn,  F. Rob,  M. Schneider,  N. Sergueev,  
 S. M. Sharada,  S. Sharma,  D. W. Small,  T. Stauch,  T. Stein,  
 Yu-Chuan Su,  A. J. W. Thom,  A. Tkatchenko,  T. Tsuchimochi,  N. M. Tubman,  
 L. Vogt,  M. L. Vidal,  O. Vydrov,  M. A. Watson,  J. Wenzel,  
 M. de Wergifosse,  T. A. Wesolowski,  A. White,  J. Witte,  A. Yamada,  
 Jun Yang,  K. Yao,  S. Yeganeh,  S. R. Yost,  Zhi-Qiang You,  A. Zech,  
 Igor Ying Zhang,  Xing Zhang,  Yan Zhao,  Ying Zhu,  B. R. Brooks,  
 G. K. L. Chan,  C. J. Cramer,  M. S. Gordon,  W. J. Hehre,  A. Klamt,  
 M. W. Schmidt,  C. D. Sherrill,  D. G. Truhlar,  A. Aspuru-Guzik,  R. Baer,  
 A. T. Bell,  N. A. Besley,  Jeng-Da Chai,  A. E. DePrince, III,  
 R. A. DiStasio Jr.,  A. Dreuw,  B. D. Dunietz,  T. R. Furlani,  
 Chao-Ping Hsu,  Yousung Jung,  Jing Kong,  D. S. Lambrecht,  WanZhen Liang,  
 C. Ochsenfeld,  V. A. Rassolov,  L. V. Slipchenko,  J. E. Subotnik,  
 T. Van Voorhis,  J. M. Herbert,  A. I. Krylov,  P. M. W. Gill,  M. Head-Gordon

 Contributors to earlier versions of Q-Chem not listed above: 
 R. D. Adamson,  B. Austin,  J. Baker,  G. J. O. Beran,  K. Brandhorst,  
 S. T. Brown,  E. F. C. Byrd,  A. K. Chakraborty,  C.-L. Cheng,  
 Siu Hung Chien,  D. M. Chipman,  D. L. Crittenden,  H. Dachsel,  
 R. J. Doerksen,  A. D. Dutoi,  L. Fusti-Molnar,  W. A. Goddard III,  
 A. Golubeva-Zadorozhnaya,  S. R. Gwaltney,  G. Hawkins,  A. Heyden,  
 S. Hirata,  G. Kedziora,  F. J. Keil,  C. Kelley,  Jihan Kim,  R. A. King,  
 R. Z. Khaliullin,  P. P. Korambath,  W. Kurlancheek,  A. M. Lee,  M. S. Lee,  
 S. V. Levchenko,  Ching Yeh Lin,  D. Liotard,  R. C. Lochan,  I. Lotan,  
 P. E. Maslen,  N. Nair,  D. P. O'Neill,  D. Neuhauser,  E. Neuscamman,  
 C. M. Oana,  R. Olson,  B. Peters,  R. Peverati,  P. A. Pieniazek,  
 Y. M. Rhee,  J. Ritchie,  M. A. Rohrdanz,  E. Rosta,  N. J. Russ,  
 H. F. Schaefer III,  N. E. Schultz,  N. Shenvi,  A. C. Simmonett,  A. Sodt,  
 D. Stuck,  K. S. Thanthiriwatte,  V. Vanovschi,  Tao Wang,  A. Warshel,  
 C. F. Williams,  Q. Wu,  X. Xu,  W. Zhang

 Please cite Q-Chem as follows:
 Y. Shao et al., Mol. Phys. 113, 184-215 (2015)
 DOI: 10.1080/00268976.2014.952696

 Q-Chem 5.1.1 for Intel X86 EM64T Linux

 Parts of Q-Chem use Armadillo 8.300.2 (Tropical Shenanigans).
 http://arma.sourceforge.net/

 Q-Chem begins on Fri Nov  6 13:35:53 2020  

Host: n0034.mhg0
0

     Scratch files written to /local/scratch/users/yhljason/BF_wB97M2_aug-cc-pcV5Z.inp20201106123935//
The previous job contains 0 fragments, simply inherited here
Input Ideriv = 0
Curr. Ideriv = -1
Max.  Ideriv = 0
Analytic post-HF gradients are not available with non-HF exchange
Input Ideriv = 0
Curr. Ideriv = 0
Max.  Ideriv = 0

Checking the input file for inconsistencies... 	...done.

--------------------------------------------------------------
User input:
--------------------------------------------------------------
$molecule
read
$end

$rem

jobtype sp
exchange wb97m(2)
xc_grid 000099000590
basis aug-cc-pcV5Z
max_scf_cycles 200
thresh 14
scf_convergence 8
mem_total 128000
cc_memory 96000
cc_backend xm
mem_static 1500
symmetry false
sym_ignore true
scf_guess read
unrestricted false
scf_algorithm gdm
n_frozen_core 500
$end

$multipole_field
Z 0.0001
$end



--------------------------------------------------------------
 ----------------------------------------------------------------
             Standard Nuclear Orientation (Angstroms)
    I     Atom           X                Y                Z
 ----------------------------------------------------------------
    1      B       0.0000000000     0.0000000000     0.0000000000
    2      F       0.0000000000     0.0000000000     1.2669000000
 ----------------------------------------------------------------
 Nuclear Repulsion Energy =    18.7962542316 hartrees
 There are        7 alpha and        7 beta electrons
 Requested basis set is aug-cc-pCV5Z
 There are 82 shells and 362 basis functions

 Total QAlloc Memory Limit 128000 MB
 Mega-Array Size      1467 MB
 MEM_STATIC part      1500 MB

                       Distance Matrix (Angstroms)
             B (  1)
   F (  2)  1.266900
 
 Applying Cartesian multipole field
    Component          Value
    ---------          -----
     (0,0,1)        1.00000E-04
 Nucleus-field energy     =     0.0021546846 hartrees
 A cutoff of  1.0D-14 yielded   3245 shell pairs
 There are     64405 function pairs (    125027 Cartesian)
 
 -------------------------------------------------------
 OpenMP Integral Computing Module                       
 Release: version 1.0, May 2013, Q-Chem Inc. Pittsburgh 
 -------------------------------------------------------
 Integral Job Info:
 Integral job number is                      11
 Integral operator is                         1
 short-range coefficients              15000000
 long-range coefficients              100000000
 Omega coefficients                         300
 if combine SR and LR in K                    1
 Integral screening is                        0
 Integral computing path is                   2
 max size of driver memory is           6400000
 size of driver memory is               5498286
 size of scratch memory is             29851430
 max col of scratch BK array             194481
 max len of scratch array in speh3         5572
 max len of scratch index in speh4           72
 max int batch size is                      520
 min int batch size is                       52
 fixed nKL is                                30
 max L of basis functions is                  5
 order of int derivative is                   0
 number of shells is                         82
 number of basis is                         502
 number of cartesian basis is               502
 number of contracted shell pairs          3245
 number of primitive shell pairs           6824
 maxK2 (contraction) of shell pair          100
 max number of K2 of shell pair               1
 max number of CS2 of shell pair            306
 max number of PS2 of shell pair            600
 mem total for path MDJ                  998666
 -------------------------------------------------------
 Smallest overlap matrix eigenvalue = 1.48E-05
 Guess MOs from SCF MO coefficient file
 Reading MOs from coefficient file
 Reading MOs from coefficient file
 Long-range K will be added via erf
 Coulomb attenuation parameter = 0.3 bohr**(-1)
 A restricted hybrid HF-DFT SCF calculation will be
 performed using Geometric Direct Minimization
 Exchange:     0.1500 Hartree-Fock + 1.0000 wB97M-V + LR-HF
 Correlation:  1.0000 wB97M-V
 Using Euler-Maclaurin-Lebedev (99,590) quadrature formula
 Nonlocal Correlation:  VV10 with C = 0.0100 and b = 6.00 and scale = 1.00000
 Grid used for NLC:  SG-1 standard quadrature
 SCF converges when RMS gradient is below 1.0E-08
Using Q-Chem read-in guess as SCF_GUESS READ specified.

 using 16 threads for integral computing
 -------------------------------------------------------
 OpenMP Integral computing Module                
 Release: version 1.0, May 2013, Q-Chem Inc. Pittsburgh 
 -------------------------------------------------------
 using 16 threads for integral computing
 -------------------------------------------------------
 OpenMP Integral computing Module                
 Release: version 1.0, May 2013, Q-Chem Inc. Pittsburgh 
 -------------------------------------------------------
TIMEINFO->: J/JK contribution 1771.24 sec.
 -------------------------------------------------------
 OpenMP BLAS3 based DFT computing Module                
 Release: version 1.0, May 2013, Q-Chem Inc. Pittsburgh 
 -------------------------------------------------------
 -------------------------------------------------------
 OpenMP BLAS3 based DFT computing Module                
 Release: version 1.0, May 2013, Q-Chem Inc. Pittsburgh 
 -------------------------------------------------------
 -------------------------------------------------------
 OpenMP BLAS3 based DFT computing Module                
 Release: version 1.0, May 2013, Q-Chem Inc. Pittsburgh 
 -------------------------------------------------------
 ---------------------------------------
  Cycle       Energy        RMS Gradient
 ---------------------------------------
    1    -124.6966887090      1.98E-10 Normal BFGS step
TIMEINFO->: J/JK contribution 1767.78 sec.
 Nonlocal correlation =     0.0191469874
    2    -124.6966887090      6.30E-11 Convergence criterion met
 ---------------------------------------
 wB97M-V orbitals are now ready for the wB97M(2) calculation.
 wB97M(2) energy = Exch (0.62194 SRHF + 1.0 LRHF + wB97M(2)_EXCH) + 
               Corr (wB97M(2)_CORR + 0.34096 MP2 + 0.65904 VV10(b=10))
 SCF time:  CPU 6988.51 s  wall 501.61 s
 SCF   energy in the final basis set = -124.60796174
 Total energy in the final basis set = -124.60796174

 Q-Chem fatal error occurred in module libmdc/qalloc.C, line 49:

 Illegal memory length in mega_alloc


 Please submit a crash report at q-chem.com/reporter 
 
 
 
User input: 5 of 6 
 
Q-Chem Developer Version!
                  Welcome to Q-Chem
     A Quantum Leap Into The Future Of Chemistry


 Q-Chem 5.1, Q-Chem, Inc., Pleasanton, CA (2018)

 Yihan Shao,  Zhengting Gan,  E. Epifanovsky,  A. T. B. Gilbert,  M. Wormit,  
 J. Kussmann,  A. W. Lange,  A. Behn,  Jia Deng,  Xintian Feng,  D. Ghosh,  
 M. Goldey,  P. R. Horn,  L. D. Jacobson,  I. Kaliman,  T. Kus,  A. Landau,  
 Jie Liu,  E. I. Proynov,  R. M. Richard,  R. P. Steele,  E. J. Sundstrom,  
 H. L. Woodcock III,  P. M. Zimmerman,  D. Zuev,  B. Albrecht,  E. Alguire,  
 S. A. Baeppler,  D. Barton,  Z. Benda,  Y. A. Bernard,  E. J. Berquist,  
 K. B. Bravaya,  H. Burton,  D. Casanova,  Chun-Min Chang,  Yunqing Chen,  
 A. Chien,  K. D. Closser,  M. P. Coons,  S. Coriani,  S. Dasgupta,  
 A. L. Dempwolff,  M. Diedenhofen,  Hainam Do,  R. G. Edgar,  Po-Tung Fang,  
 S. Faraji,  S. Fatehi,  Qingguo Feng,  K. D. Fenk,  J. Fosso-Tande,  
 Qinghui Ge,  A. Ghysels,  G. Gidofalvi,  J. Gomes,  J. Gonthier,  A. Gunina,  
 D. Hait,  M. W. D. Hanson-Heine,  P. H. P. Harbach,  A. W. Hauser,  
 J. E. Herr,  E. G. Hohenstein,  Z. C. Holden,  Kerwin Hui,  B. C. Huynh,  
 T.-C. Jagau,  Hyunjun Ji,  B. Kaduk,  K. Khistyaev,  Jaehoon Kim,  
 P. Klunzinger,  K. Koh,  D. Kosenkov,  L. Koulias,  T. Kowalczyk,  
 C. M. Krauter,  A. Kunitsa,  Ka Un Lao,  A. Laurent,  K. V. Lawler,  
 Joonho Lee,  D. Lefrancois,  S. Lehtola,  D. S. Levine,  Yi-Pei Li,  
 You-Sheng Lin,  Fenglai Liu,  E. Livshits,  A. Luenser,  P. Manohar,  
 E. Mansoor,  S. F. Manzer,  Shan-Ping Mao,  Yuezhi Mao,  N. Mardirossian,  
 A. V. Marenich,  T. Markovich,  L. A. Martinez-Martinez,  S. A. Maurer,  
 N. J. Mayhall,  S. C. McKenzie,  J.-M. Mewes,  A. F. Morrison,  
 J. W. Mullinax,  K. Nanda,  T. S. Nguyen-Beck,  R. Olivares-Amaya,  
 J. A. Parkhill,  T. M. Perrine,  F. Plasser,  P. Pokhilko,  S. Prager,  
 A. Prociuk,  E. Ramos,  D. R. Rehn,  F. Rob,  M. Schneider,  N. Sergueev,  
 S. M. Sharada,  S. Sharma,  D. W. Small,  T. Stauch,  T. Stein,  
 Yu-Chuan Su,  A. J. W. Thom,  A. Tkatchenko,  T. Tsuchimochi,  N. M. Tubman,  
 L. Vogt,  M. L. Vidal,  O. Vydrov,  M. A. Watson,  J. Wenzel,  
 M. de Wergifosse,  T. A. Wesolowski,  A. White,  J. Witte,  A. Yamada,  
 Jun Yang,  K. Yao,  S. Yeganeh,  S. R. Yost,  Zhi-Qiang You,  A. Zech,  
 Igor Ying Zhang,  Xing Zhang,  Yan Zhao,  Ying Zhu,  B. R. Brooks,  
 G. K. L. Chan,  C. J. Cramer,  M. S. Gordon,  W. J. Hehre,  A. Klamt,  
 M. W. Schmidt,  C. D. Sherrill,  D. G. Truhlar,  A. Aspuru-Guzik,  R. Baer,  
 A. T. Bell,  N. A. Besley,  Jeng-Da Chai,  A. E. DePrince, III,  
 R. A. DiStasio Jr.,  A. Dreuw,  B. D. Dunietz,  T. R. Furlani,  
 Chao-Ping Hsu,  Yousung Jung,  Jing Kong,  D. S. Lambrecht,  WanZhen Liang,  
 C. Ochsenfeld,  V. A. Rassolov,  L. V. Slipchenko,  J. E. Subotnik,  
 T. Van Voorhis,  J. M. Herbert,  A. I. Krylov,  P. M. W. Gill,  M. Head-Gordon

 Contributors to earlier versions of Q-Chem not listed above: 
 R. D. Adamson,  B. Austin,  J. Baker,  G. J. O. Beran,  K. Brandhorst,  
 S. T. Brown,  E. F. C. Byrd,  A. K. Chakraborty,  C.-L. Cheng,  
 Siu Hung Chien,  D. M. Chipman,  D. L. Crittenden,  H. Dachsel,  
 R. J. Doerksen,  A. D. Dutoi,  L. Fusti-Molnar,  W. A. Goddard III,  
 A. Golubeva-Zadorozhnaya,  S. R. Gwaltney,  G. Hawkins,  A. Heyden,  
 S. Hirata,  G. Kedziora,  F. J. Keil,  C. Kelley,  Jihan Kim,  R. A. King,  
 R. Z. Khaliullin,  P. P. Korambath,  W. Kurlancheek,  A. M. Lee,  M. S. Lee,  
 S. V. Levchenko,  Ching Yeh Lin,  D. Liotard,  R. C. Lochan,  I. Lotan,  
 P. E. Maslen,  N. Nair,  D. P. O'Neill,  D. Neuhauser,  E. Neuscamman,  
 C. M. Oana,  R. Olson,  B. Peters,  R. Peverati,  P. A. Pieniazek,  
 Y. M. Rhee,  J. Ritchie,  M. A. Rohrdanz,  E. Rosta,  N. J. Russ,  
 H. F. Schaefer III,  N. E. Schultz,  N. Shenvi,  A. C. Simmonett,  A. Sodt,  
 D. Stuck,  K. S. Thanthiriwatte,  V. Vanovschi,  Tao Wang,  A. Warshel,  
 C. F. Williams,  Q. Wu,  X. Xu,  W. Zhang

 Please cite Q-Chem as follows:
 Y. Shao et al., Mol. Phys. 113, 184-215 (2015)
 DOI: 10.1080/00268976.2014.952696

 Q-Chem 5.1.1 for Intel X86 EM64T Linux

 Parts of Q-Chem use Armadillo 8.300.2 (Tropical Shenanigans).
 http://arma.sourceforge.net/

 Q-Chem begins on Fri Nov  6 13:44:21 2020  

Host: n0034.mhg0
0

     Scratch files written to /local/scratch/users/yhljason/BF_wB97M2_aug-cc-pcV5Z.inp20201106123935//
The previous job contains 0 fragments, simply inherited here
Input Ideriv = 2
Curr. Ideriv = -1
Max.  Ideriv = 2
Input Ideriv = 1
Curr. Ideriv = 2
Max.  Ideriv = 1

Checking the input file for inconsistencies... 	...done.

--------------------------------------------------------------
User input:
--------------------------------------------------------------
$molecule
read
$end

$rem

jobtype sp
method wb97m-v
xc_grid 000099000590
basis aug-cc-pcV5Z
max_scf_cycles 200
thresh 14
scf_convergence 8
mem_total 128000
cc_memory 96000
cc_backend xm
mem_static 1500
symmetry false
sym_ignore true
scf_guess read
unrestricted false
scf_algorithm gdm
n_frozen_core 500
gen_scfman true
$end

$multipole_field
Z -0.0001
$end



--------------------------------------------------------------
 ----------------------------------------------------------------
             Standard Nuclear Orientation (Angstroms)
    I     Atom           X                Y                Z
 ----------------------------------------------------------------
    1      B       0.0000000000     0.0000000000     0.0000000000
    2      F       0.0000000000     0.0000000000     1.2669000000
 ----------------------------------------------------------------
 Nuclear Repulsion Energy =    18.7962542316 hartrees
 There are        7 alpha and        7 beta electrons
 Requested basis set is aug-cc-pCV5Z
 There are 82 shells and 362 basis functions

 Total QAlloc Memory Limit 128000 MB
 Mega-Array Size      1467 MB
 MEM_STATIC part      1500 MB

                       Distance Matrix (Angstroms)
             B (  1)
   F (  2)  1.266900
 
 Applying Cartesian multipole field
    Component          Value
    ---------          -----
     (0,0,1)       -1.00000E-04
 Nucleus-field energy     =    -0.0021546846 hartrees
 A cutoff of  1.0D-14 yielded   3245 shell pairs
 There are     64405 function pairs (    125027 Cartesian)
 
 -------------------------------------------------------
 OpenMP Integral Computing Module                       
 Release: version 1.0, May 2013, Q-Chem Inc. Pittsburgh 
 -------------------------------------------------------
 Integral Job Info:
 Integral job number is                      11
 Integral operator is                         1
 short-range coefficients              15000000
 long-range coefficients              100000000
 Omega coefficients                         300
 if combine SR and LR in K                    1
 Integral screening is                        0
 Integral computing path is                   2
 max size of driver memory is           6400000
 size of driver memory is               5498286
 size of scratch memory is             29851430
 max col of scratch BK array             194481
 max len of scratch array in speh3         5572
 max len of scratch index in speh4           72
 max int batch size is                      520
 min int batch size is                       52
 fixed nKL is                                30
 max L of basis functions is                  5
 order of int derivative is                   0
 number of shells is                         82
 number of basis is                         502
 number of cartesian basis is               502
 number of contracted shell pairs          3245
 number of primitive shell pairs           6824
 maxK2 (contraction) of shell pair          100
 max number of K2 of shell pair               1
 max number of CS2 of shell pair            306
 max number of PS2 of shell pair            600
 mem total for path MDJ                  998666
 -------------------------------------------------------
 Smallest overlap matrix eigenvalue = 1.48E-05
 Guess MOs from SCF MO coefficient file

 -----------------------------------------------------------------------
  General SCF calculation program by
  Eric Jon Sundstrom, Paul Horn, Yuezhi Mao, Dmitri Zuev, Alec White,
  David Stuck, Shaama M.S., Shane Yost, Joonho Lee, David Small,
  Daniel Levine, Susi Lehtola, Hugh Burton, Evgeny Epifanovsky
 -----------------------------------------------------------------------
 Exchange:     0.1500 Hartree-Fock + 1.0000 wB97M-V + LR-HF
 Correlation:  1.0000 wB97M-V
 Using Euler-Maclaurin-Lebedev (99,590) quadrature formula
 Nonlocal Correlation:  VV10 with C = 0.0100 and b = 6.00 and scale = 1.00000
 Grid used for NLC:  SG-1 standard quadrature
 using 16 threads for integral computing
 -------------------------------------------------------
 OpenMP Integral computing Module                
 Release: version 1.0, May 2013, Q-Chem Inc. Pittsburgh 
 -------------------------------------------------------
 using 16 threads for integral computing
 -------------------------------------------------------
 OpenMP Integral computing Module                
 Release: version 1.0, May 2013, Q-Chem Inc. Pittsburgh 
 -------------------------------------------------------
 -------------------------------------------------------
 OpenMP BLAS3 based DFT computing Module                
 Release: version 1.0, May 2013, Q-Chem Inc. Pittsburgh 
 -------------------------------------------------------
 -------------------------------------------------------
 OpenMP BLAS3 based DFT computing Module                
 Release: version 1.0, May 2013, Q-Chem Inc. Pittsburgh 
 -------------------------------------------------------
 -------------------------------------------------------
 OpenMP BLAS3 based DFT computing Module                
 Release: version 1.0, May 2013, Q-Chem Inc. Pittsburgh 
 -------------------------------------------------------
 Nonlocal correlation = 0.059702522305
 A restricted SCF calculation will be
 performed using GDM
 SCF converges when RMS gradient is below 1.0e-08
 ---------------------------------------
  Cycle       Energy        RMS Gradient
 ---------------------------------------
 Nonlocal correlation = 5.970246087744e-02
    1    -124.6967607929      2.78e-04   Normal BFGS step
 Nonlocal correlation = 5.970292795666e-02
    2    -124.6967611153      7.36e-05   Normal BFGS step
 Nonlocal correlation = 5.970270309824e-02
    3    -124.6967611505      5.08e-05   Normal BFGS step
 Nonlocal correlation = 5.970271317075e-02
    4    -124.6967611721      4.12e-06   Normal BFGS step
 Nonlocal correlation = 5.970271307350e-02
    5    -124.6967611723      1.35e-06   Normal BFGS step
 Nonlocal correlation = 5.970271320635e-02
    6    -124.6967611723      2.06e-07   Normal BFGS step
 Nonlocal correlation = 5.970271333086e-02
    7    -124.6967611723      5.06e-08   Normal BFGS step
 Nonlocal correlation = 5.970271334576e-02
    8    -124.6967611723      9.68e-09  Convergence criterion met
 ---------------------------------------
 SCF time:   CPU 16239.63s  wall 1158.00s 
 SCF   energy in the final basis set =     -124.6967611723
 Total energy in the final basis set =     -124.6967611723
 
 --------------------------------------------------------------
 
                    Orbital Energies (a.u.)
 --------------------------------------------------------------
 
 Alpha MOs
 -- Occupied --
-24.985  -7.004  -1.430  -0.734  -0.641  -0.641  -0.380
 -- Virtual --
  0.015   0.015   0.023   0.034   0.053   0.053   0.097   0.109
  0.109   0.110   0.110   0.112   0.162   0.162   0.182   0.200
  0.200   0.234   0.300   0.300   0.300   0.310   0.310   0.341
  0.368   0.368   0.385   0.387   0.387   0.421   0.421   0.531
  0.531   0.584   0.612   0.618   0.618   0.635   0.635   0.706
  0.723   0.853   0.853   0.925   0.925   0.931   0.931   0.947
  0.947   0.957   0.957   0.991   0.991   1.002   1.017   1.017
  1.034   1.034   1.034   1.094   1.094   1.168   1.334   1.334
  1.356   1.516   1.516   1.527   1.527   1.596   1.600   1.600
  1.606   1.756   1.756   1.882   1.908   1.908   1.977   1.977
  2.151   2.151   2.154   2.154   2.226   2.226   2.246   2.394
  2.394   2.412   2.412   2.414   2.414   2.453   2.453   2.461
  2.461   2.474   2.530   2.530   2.538   2.538   2.639   2.692
  2.692   2.727   2.727   2.795   3.015   3.090   3.090   3.132
  3.132   3.342   3.418   3.418   3.524   3.524   3.788   3.788
  3.880   3.880   3.957   3.957   3.986   4.143   4.143   4.150
  4.237   4.237   4.327   4.426   4.426   4.860   4.860   4.894
  5.150   5.150   5.422   5.422   5.489   5.578   5.578   5.610
  5.610   5.736   5.736   5.830   5.830   5.886   5.886   5.909
  5.990   5.990   6.027   6.052   6.052   6.307   6.307   6.321
  6.321   6.424   6.424   6.848   6.897   6.897   6.942   6.942
  7.040   7.040   7.119   7.505   7.688   7.688   7.691   7.691
  7.959   7.959   8.674   8.674   8.768   8.768   8.837   8.837
  9.103   9.156   9.156   9.218   9.218   9.498   9.498   9.566
  9.566   9.622   9.623   9.623   9.705   9.974   9.974  10.831
 10.897  10.897  11.017  11.017  11.405  11.405  12.387  12.387
 12.571  13.343  13.927  13.927  14.306  15.640  16.404  16.404
 18.851  20.425  20.425  20.524  20.524  20.878  20.878  21.132
 21.132  21.183  21.242  21.242  23.761  23.761  24.007  24.007
 24.023  24.233  24.233  24.351  24.351  24.565  24.565  24.681
 24.681  25.011  25.011  25.501  25.631  25.631  26.078  26.078
 26.307  27.968  27.968  28.776  28.776  29.500  34.960  37.030
 38.684  38.684  38.802  38.802  39.128  39.128  39.468  39.668
 39.668  41.181  46.113  46.113  48.080  74.800  74.803  75.391
 75.391  75.588  78.684  78.685  79.211  79.211  79.789  90.926
 92.048  92.048  92.305  92.305  92.481  92.481  92.643 102.567
112.030 112.030 113.195 123.124 123.125 123.132 123.132 123.143
123.143 123.149 123.149 123.156 130.632 130.632 132.186 152.846
152.846 152.893 152.893 153.124 153.124 153.307 231.711 231.721
232.116 232.116 232.227 233.134 233.135 233.519 233.519 233.894
237.562 248.927 248.928 248.930 248.930 248.932 248.932 248.944
248.944 248.945 273.301 320.031 320.031 321.015 365.936 365.936
366.836 366.840 366.840 366.948 366.948 367.042 367.042 367.534
714.365 714.374 714.615 714.615 714.885 720.163 830.6711033.025
*******1034.1452543.984
 --------------------------------------------------------------
 
          Ground-State Mulliken Net Atomic Charges

     Atom                 Charge (a.u.)
  ----------------------------------------
      1 B                     0.144677
      2 F                    -0.144677
  ----------------------------------------
  Sum of atomic charges =     0.000000

 -----------------------------------------------------------------
                    Cartesian Multipole Moments
 -----------------------------------------------------------------
    Charge (ESU x 10^10)
                 0.0000
    Dipole Moment (Debye)
         X      -0.0000      Y       0.0000      Z       0.9257
       Tot       0.9257
    Quadrupole Moments (Debye-Ang)
        XX     -10.7482     XY      -0.0000     YY     -10.7482
        XZ      -0.0000     YZ      -0.0000     ZZ     -12.7309
    Octopole Moments (Debye-Ang^2)
       XXX      -0.0000    XXY       0.0000    XYY      -0.0000
       YYY       0.0000    XXZ      -4.9891    XYZ      -0.0000
       YYZ      -4.9891    XZZ      -0.0000    YZZ       0.0000
       ZZZ     -16.2304
    Hexadecapole Moments (Debye-Ang^3)
      XXXX     -13.1846   XXXY      -0.0000   XXYY      -4.3949
      XYYY      -0.0000   YYYY     -13.1846   XXXZ      -0.0000
      XXYZ      -0.0000   XYYZ       0.0000   YYYZ      -0.0000
      XXZZ     -12.4027   XYZZ      -0.0000   YYZZ     -12.4027
      XZZZ      -0.0000   YZZZ      -0.0000   ZZZZ     -61.4758
 -----------------------------------------------------------------
Archival summary:
1\1\n0034.mhg0\SP\ProcedureUnspecified\BasisUnspecified\11\yhljason\FriNov614:03:452020FriNov614:03:452020\0\\#,ProcedureUnspecified,BasisUnspecified,\\0,1\B\F,1,1.2669\\\@

 Total job time:  1164.22s(wall), 16262.62s(cpu) 
 Fri Nov  6 14:03:45 2020

        *************************************************************
        *                                                           *
        *  Thank you very much for using Q-Chem.  Have a nice day.  *
        *                                                           *
        *************************************************************


 
User input: 6 of 6 
 
Q-Chem Developer Version!
                  Welcome to Q-Chem
     A Quantum Leap Into The Future Of Chemistry


 Q-Chem 5.1, Q-Chem, Inc., Pleasanton, CA (2018)

 Yihan Shao,  Zhengting Gan,  E. Epifanovsky,  A. T. B. Gilbert,  M. Wormit,  
 J. Kussmann,  A. W. Lange,  A. Behn,  Jia Deng,  Xintian Feng,  D. Ghosh,  
 M. Goldey,  P. R. Horn,  L. D. Jacobson,  I. Kaliman,  T. Kus,  A. Landau,  
 Jie Liu,  E. I. Proynov,  R. M. Richard,  R. P. Steele,  E. J. Sundstrom,  
 H. L. Woodcock III,  P. M. Zimmerman,  D. Zuev,  B. Albrecht,  E. Alguire,  
 S. A. Baeppler,  D. Barton,  Z. Benda,  Y. A. Bernard,  E. J. Berquist,  
 K. B. Bravaya,  H. Burton,  D. Casanova,  Chun-Min Chang,  Yunqing Chen,  
 A. Chien,  K. D. Closser,  M. P. Coons,  S. Coriani,  S. Dasgupta,  
 A. L. Dempwolff,  M. Diedenhofen,  Hainam Do,  R. G. Edgar,  Po-Tung Fang,  
 S. Faraji,  S. Fatehi,  Qingguo Feng,  K. D. Fenk,  J. Fosso-Tande,  
 Qinghui Ge,  A. Ghysels,  G. Gidofalvi,  J. Gomes,  J. Gonthier,  A. Gunina,  
 D. Hait,  M. W. D. Hanson-Heine,  P. H. P. Harbach,  A. W. Hauser,  
 J. E. Herr,  E. G. Hohenstein,  Z. C. Holden,  Kerwin Hui,  B. C. Huynh,  
 T.-C. Jagau,  Hyunjun Ji,  B. Kaduk,  K. Khistyaev,  Jaehoon Kim,  
 P. Klunzinger,  K. Koh,  D. Kosenkov,  L. Koulias,  T. Kowalczyk,  
 C. M. Krauter,  A. Kunitsa,  Ka Un Lao,  A. Laurent,  K. V. Lawler,  
 Joonho Lee,  D. Lefrancois,  S. Lehtola,  D. S. Levine,  Yi-Pei Li,  
 You-Sheng Lin,  Fenglai Liu,  E. Livshits,  A. Luenser,  P. Manohar,  
 E. Mansoor,  S. F. Manzer,  Shan-Ping Mao,  Yuezhi Mao,  N. Mardirossian,  
 A. V. Marenich,  T. Markovich,  L. A. Martinez-Martinez,  S. A. Maurer,  
 N. J. Mayhall,  S. C. McKenzie,  J.-M. Mewes,  A. F. Morrison,  
 J. W. Mullinax,  K. Nanda,  T. S. Nguyen-Beck,  R. Olivares-Amaya,  
 J. A. Parkhill,  T. M. Perrine,  F. Plasser,  P. Pokhilko,  S. Prager,  
 A. Prociuk,  E. Ramos,  D. R. Rehn,  F. Rob,  M. Schneider,  N. Sergueev,  
 S. M. Sharada,  S. Sharma,  D. W. Small,  T. Stauch,  T. Stein,  
 Yu-Chuan Su,  A. J. W. Thom,  A. Tkatchenko,  T. Tsuchimochi,  N. M. Tubman,  
 L. Vogt,  M. L. Vidal,  O. Vydrov,  M. A. Watson,  J. Wenzel,  
 M. de Wergifosse,  T. A. Wesolowski,  A. White,  J. Witte,  A. Yamada,  
 Jun Yang,  K. Yao,  S. Yeganeh,  S. R. Yost,  Zhi-Qiang You,  A. Zech,  
 Igor Ying Zhang,  Xing Zhang,  Yan Zhao,  Ying Zhu,  B. R. Brooks,  
 G. K. L. Chan,  C. J. Cramer,  M. S. Gordon,  W. J. Hehre,  A. Klamt,  
 M. W. Schmidt,  C. D. Sherrill,  D. G. Truhlar,  A. Aspuru-Guzik,  R. Baer,  
 A. T. Bell,  N. A. Besley,  Jeng-Da Chai,  A. E. DePrince, III,  
 R. A. DiStasio Jr.,  A. Dreuw,  B. D. Dunietz,  T. R. Furlani,  
 Chao-Ping Hsu,  Yousung Jung,  Jing Kong,  D. S. Lambrecht,  WanZhen Liang,  
 C. Ochsenfeld,  V. A. Rassolov,  L. V. Slipchenko,  J. E. Subotnik,  
 T. Van Voorhis,  J. M. Herbert,  A. I. Krylov,  P. M. W. Gill,  M. Head-Gordon

 Contributors to earlier versions of Q-Chem not listed above: 
 R. D. Adamson,  B. Austin,  J. Baker,  G. J. O. Beran,  K. Brandhorst,  
 S. T. Brown,  E. F. C. Byrd,  A. K. Chakraborty,  C.-L. Cheng,  
 Siu Hung Chien,  D. M. Chipman,  D. L. Crittenden,  H. Dachsel,  
 R. J. Doerksen,  A. D. Dutoi,  L. Fusti-Molnar,  W. A. Goddard III,  
 A. Golubeva-Zadorozhnaya,  S. R. Gwaltney,  G. Hawkins,  A. Heyden,  
 S. Hirata,  G. Kedziora,  F. J. Keil,  C. Kelley,  Jihan Kim,  R. A. King,  
 R. Z. Khaliullin,  P. P. Korambath,  W. Kurlancheek,  A. M. Lee,  M. S. Lee,  
 S. V. Levchenko,  Ching Yeh Lin,  D. Liotard,  R. C. Lochan,  I. Lotan,  
 P. E. Maslen,  N. Nair,  D. P. O'Neill,  D. Neuhauser,  E. Neuscamman,  
 C. M. Oana,  R. Olson,  B. Peters,  R. Peverati,  P. A. Pieniazek,  
 Y. M. Rhee,  J. Ritchie,  M. A. Rohrdanz,  E. Rosta,  N. J. Russ,  
 H. F. Schaefer III,  N. E. Schultz,  N. Shenvi,  A. C. Simmonett,  A. Sodt,  
 D. Stuck,  K. S. Thanthiriwatte,  V. Vanovschi,  Tao Wang,  A. Warshel,  
 C. F. Williams,  Q. Wu,  X. Xu,  W. Zhang

 Please cite Q-Chem as follows:
 Y. Shao et al., Mol. Phys. 113, 184-215 (2015)
 DOI: 10.1080/00268976.2014.952696

 Q-Chem 5.1.1 for Intel X86 EM64T Linux

 Parts of Q-Chem use Armadillo 8.300.2 (Tropical Shenanigans).
 http://arma.sourceforge.net/

 Q-Chem begins on Fri Nov  6 14:03:45 2020  

Host: n0034.mhg0
0

     Scratch files written to /local/scratch/users/yhljason/BF_wB97M2_aug-cc-pcV5Z.inp20201106123935//
The previous job contains 0 fragments, simply inherited here
Input Ideriv = 0
Curr. Ideriv = -1
Max.  Ideriv = 0
Analytic post-HF gradients are not available with non-HF exchange
Input Ideriv = 0
Curr. Ideriv = 0
Max.  Ideriv = 0

Checking the input file for inconsistencies... 	...done.

--------------------------------------------------------------
User input:
--------------------------------------------------------------
$molecule
read
$end

$rem

jobtype sp
exchange wb97m(2)
xc_grid 000099000590
basis aug-cc-pcV5Z
max_scf_cycles 200
thresh 14
scf_convergence 8
mem_total 128000
cc_memory 96000
cc_backend xm
mem_static 1500
symmetry false
sym_ignore true
scf_guess read
unrestricted false
scf_algorithm gdm
n_frozen_core 500
$end

$multipole_field
Z -0.0001
$end


--------------------------------------------------------------
 ----------------------------------------------------------------
             Standard Nuclear Orientation (Angstroms)
    I     Atom           X                Y                Z
 ----------------------------------------------------------------
    1      B       0.0000000000     0.0000000000     0.0000000000
    2      F       0.0000000000     0.0000000000     1.2669000000
 ----------------------------------------------------------------
 Nuclear Repulsion Energy =    18.7962542316 hartrees
 There are        7 alpha and        7 beta electrons
 Requested basis set is aug-cc-pCV5Z
 There are 82 shells and 362 basis functions

 Total QAlloc Memory Limit 128000 MB
 Mega-Array Size      1467 MB
 MEM_STATIC part      1500 MB

                       Distance Matrix (Angstroms)
             B (  1)
   F (  2)  1.266900
 
 Applying Cartesian multipole field
    Component          Value
    ---------          -----
     (0,0,1)       -1.00000E-04
 Nucleus-field energy     =    -0.0021546846 hartrees
 A cutoff of  1.0D-14 yielded   3245 shell pairs
 There are     64405 function pairs (    125027 Cartesian)
 
 -------------------------------------------------------
 OpenMP Integral Computing Module                       
 Release: version 1.0, May 2013, Q-Chem Inc. Pittsburgh 
 -------------------------------------------------------
 Integral Job Info:
 Integral job number is                      11
 Integral operator is                         1
 short-range coefficients              15000000
 long-range coefficients              100000000
 Omega coefficients                         300
 if combine SR and LR in K                    1
 Integral screening is                        0
 Integral computing path is                   2
 max size of driver memory is           6400000
 size of driver memory is               5498286
 size of scratch memory is             29851430
 max col of scratch BK array             194481
 max len of scratch array in speh3         5572
 max len of scratch index in speh4           72
 max int batch size is                      520
 min int batch size is                       52
 fixed nKL is                                30
 max L of basis functions is                  5
 order of int derivative is                   0
 number of shells is                         82
 number of basis is                         502
 number of cartesian basis is               502
 number of contracted shell pairs          3245
 number of primitive shell pairs           6824
 maxK2 (contraction) of shell pair          100
 max number of K2 of shell pair               1
 max number of CS2 of shell pair            306
 max number of PS2 of shell pair            600
 mem total for path MDJ                  998666
 -------------------------------------------------------
 Smallest overlap matrix eigenvalue = 1.48E-05
 Guess MOs from SCF MO coefficient file
 Reading MOs from coefficient file
 Reading MOs from coefficient file
 Long-range K will be added via erf
 Coulomb attenuation parameter = 0.3 bohr**(-1)
 A restricted hybrid HF-DFT SCF calculation will be
 performed using Geometric Direct Minimization
 Exchange:     0.1500 Hartree-Fock + 1.0000 wB97M-V + LR-HF
 Correlation:  1.0000 wB97M-V
 Using Euler-Maclaurin-Lebedev (99,590) quadrature formula
 Nonlocal Correlation:  VV10 with C = 0.0100 and b = 6.00 and scale = 1.00000
 Grid used for NLC:  SG-1 standard quadrature
 SCF converges when RMS gradient is below 1.0E-08
Using Q-Chem read-in guess as SCF_GUESS READ specified.

 using 16 threads for integral computing
 -------------------------------------------------------
 OpenMP Integral computing Module                
 Release: version 1.0, May 2013, Q-Chem Inc. Pittsburgh 
 -------------------------------------------------------
 using 16 threads for integral computing
 -------------------------------------------------------
 OpenMP Integral computing Module                
 Release: version 1.0, May 2013, Q-Chem Inc. Pittsburgh 
 -------------------------------------------------------
TIMEINFO->: J/JK contribution 1755.83 sec.
 -------------------------------------------------------
 OpenMP BLAS3 based DFT computing Module                
 Release: version 1.0, May 2013, Q-Chem Inc. Pittsburgh 
 -------------------------------------------------------
 -------------------------------------------------------
 OpenMP BLAS3 based DFT computing Module                
 Release: version 1.0, May 2013, Q-Chem Inc. Pittsburgh 
 -------------------------------------------------------
 -------------------------------------------------------
 OpenMP BLAS3 based DFT computing Module                
 Release: version 1.0, May 2013, Q-Chem Inc. Pittsburgh 
 -------------------------------------------------------
 ---------------------------------------
  Cycle       Energy        RMS Gradient
 ---------------------------------------
    1    -124.6967611723      3.93E-10 Normal BFGS step
TIMEINFO->: J/JK contribution 1781.28 sec.
 Nonlocal correlation =     0.0191470258
    2    -124.6967611723      1.25E-10 Convergence criterion met
 ---------------------------------------
 wB97M-V orbitals are now ready for the wB97M(2) calculation.
 wB97M(2) energy = Exch (0.62194 SRHF + 1.0 LRHF + wB97M(2)_EXCH) + 
               Corr (wB97M(2)_CORR + 0.34096 MP2 + 0.65904 VV10(b=10))
 SCF time:  CPU 6999.44 s  wall 511.39 s
 SCF   energy in the final basis set = -124.60802910
 Total energy in the final basis set = -124.60802910

 Q-Chem fatal error occurred in module libmdc/qalloc.C, line 49:

 Illegal memory length in mega_alloc


 Please submit a crash report at q-chem.com/reporter 
 
 
