Q-Chem Developer Version!
                  Welcome to Q-Chem
     A Quantum Leap Into The Future Of Chemistry


 Q-Chem 5.1, Q-Chem, Inc., Pleasanton, CA (2018)

 Yihan Shao,  Zhengting Gan,  E. Epifanovsky,  A. T. B. Gilbert,  M. Wormit,  
 J. Kussmann,  A. W. Lange,  A. Behn,  Jia Deng,  Xintian Feng,  D. Ghosh,  
 M. Goldey,  P. R. Horn,  L. D. Jacobson,  I. Kaliman,  T. Kus,  A. Landau,  
 Jie Liu,  E. I. Proynov,  R. M. Richard,  R. P. Steele,  E. J. Sundstrom,  
 H. L. Woodcock III,  P. M. Zimmerman,  D. Zuev,  B. Albrecht,  E. Alguire,  
 S. A. Baeppler,  D. Barton,  Z. Benda,  Y. A. Bernard,  E. J. Berquist,  
 K. B. Bravaya,  H. Burton,  D. Casanova,  Chun-Min Chang,  Yunqing Chen,  
 A. Chien,  K. D. Closser,  M. P. Coons,  S. Coriani,  S. Dasgupta,  
 A. L. Dempwolff,  M. Diedenhofen,  Hainam Do,  R. G. Edgar,  Po-Tung Fang,  
 S. Faraji,  S. Fatehi,  Qingguo Feng,  K. D. Fenk,  J. Fosso-Tande,  
 Qinghui Ge,  A. Ghysels,  G. Gidofalvi,  J. Gomes,  J. Gonthier,  A. Gunina,  
 D. Hait,  M. W. D. Hanson-Heine,  P. H. P. Harbach,  A. W. Hauser,  
 J. E. Herr,  E. G. Hohenstein,  Z. C. Holden,  Kerwin Hui,  B. C. Huynh,  
 T.-C. Jagau,  Hyunjun Ji,  B. Kaduk,  K. Khistyaev,  Jaehoon Kim,  
 P. Klunzinger,  K. Koh,  D. Kosenkov,  L. Koulias,  T. Kowalczyk,  
 C. M. Krauter,  A. Kunitsa,  Ka Un Lao,  A. Laurent,  K. V. Lawler,  
 Joonho Lee,  D. Lefrancois,  S. Lehtola,  D. S. Levine,  Yi-Pei Li,  
 You-Sheng Lin,  Fenglai Liu,  E. Livshits,  A. Luenser,  P. Manohar,  
 E. Mansoor,  S. F. Manzer,  Shan-Ping Mao,  Yuezhi Mao,  N. Mardirossian,  
 A. V. Marenich,  T. Markovich,  L. A. Martinez-Martinez,  S. A. Maurer,  
 N. J. Mayhall,  S. C. McKenzie,  J.-M. Mewes,  A. F. Morrison,  
 J. W. Mullinax,  K. Nanda,  T. S. Nguyen-Beck,  R. Olivares-Amaya,  
 J. A. Parkhill,  T. M. Perrine,  F. Plasser,  P. Pokhilko,  S. Prager,  
 A. Prociuk,  E. Ramos,  D. R. Rehn,  F. Rob,  M. Schneider,  N. Sergueev,  
 S. M. Sharada,  S. Sharma,  D. W. Small,  T. Stauch,  T. Stein,  
 Yu-Chuan Su,  A. J. W. Thom,  A. Tkatchenko,  T. Tsuchimochi,  N. M. Tubman,  
 L. Vogt,  M. L. Vidal,  O. Vydrov,  M. A. Watson,  J. Wenzel,  
 M. de Wergifosse,  T. A. Wesolowski,  A. White,  J. Witte,  A. Yamada,  
 Jun Yang,  K. Yao,  S. Yeganeh,  S. R. Yost,  Zhi-Qiang You,  A. Zech,  
 Igor Ying Zhang,  Xing Zhang,  Yan Zhao,  Ying Zhu,  B. R. Brooks,  
 G. K. L. Chan,  C. J. Cramer,  M. S. Gordon,  W. J. Hehre,  A. Klamt,  
 M. W. Schmidt,  C. D. Sherrill,  D. G. Truhlar,  A. Aspuru-Guzik,  R. Baer,  
 A. T. Bell,  N. A. Besley,  Jeng-Da Chai,  A. E. DePrince, III,  
 R. A. DiStasio Jr.,  A. Dreuw,  B. D. Dunietz,  T. R. Furlani,  
 Chao-Ping Hsu,  Yousung Jung,  Jing Kong,  D. S. Lambrecht,  WanZhen Liang,  
 C. Ochsenfeld,  V. A. Rassolov,  L. V. Slipchenko,  J. E. Subotnik,  
 T. Van Voorhis,  J. M. Herbert,  A. I. Krylov,  P. M. W. Gill,  M. Head-Gordon

 Contributors to earlier versions of Q-Chem not listed above: 
 R. D. Adamson,  B. Austin,  J. Baker,  G. J. O. Beran,  K. Brandhorst,  
 S. T. Brown,  E. F. C. Byrd,  A. K. Chakraborty,  C.-L. Cheng,  
 Siu Hung Chien,  D. M. Chipman,  D. L. Crittenden,  H. Dachsel,  
 R. J. Doerksen,  A. D. Dutoi,  L. Fusti-Molnar,  W. A. Goddard III,  
 A. Golubeva-Zadorozhnaya,  S. R. Gwaltney,  G. Hawkins,  A. Heyden,  
 S. Hirata,  G. Kedziora,  F. J. Keil,  C. Kelley,  Jihan Kim,  R. A. King,  
 R. Z. Khaliullin,  P. P. Korambath,  W. Kurlancheek,  A. M. Lee,  M. S. Lee,  
 S. V. Levchenko,  Ching Yeh Lin,  D. Liotard,  R. C. Lochan,  I. Lotan,  
 P. E. Maslen,  N. Nair,  D. P. O'Neill,  D. Neuhauser,  E. Neuscamman,  
 C. M. Oana,  R. Olson,  B. Peters,  R. Peverati,  P. A. Pieniazek,  
 Y. M. Rhee,  J. Ritchie,  M. A. Rohrdanz,  E. Rosta,  N. J. Russ,  
 H. F. Schaefer III,  N. E. Schultz,  N. Shenvi,  A. C. Simmonett,  A. Sodt,  
 D. Stuck,  K. S. Thanthiriwatte,  V. Vanovschi,  Tao Wang,  A. Warshel,  
 C. F. Williams,  Q. Wu,  X. Xu,  W. Zhang

 Please cite Q-Chem as follows:
 Y. Shao et al., Mol. Phys. 113, 184-215 (2015)
 DOI: 10.1080/00268976.2014.952696

 Q-Chem 5.1.1 for Intel X86 EM64T Linux

 Parts of Q-Chem use Armadillo 8.300.2 (Tropical Shenanigans).
 http://arma.sourceforge.net/

 Q-Chem begins on Fri Nov  6 12:25:21 2020  

Host: n0088.mhg0
0

     Scratch files written to /local/scratch/users/yhljason/Cl2_wB97M2_aug-cc-pcVQZ.inp20201106122519//
Input Ideriv = 2
Curr. Ideriv = -1
Max.  Ideriv = 2
Input Ideriv = 1
Curr. Ideriv = 2
Max.  Ideriv = 1

Checking the input file for inconsistencies... 	...done.

--------------------------------------------------------------
User input:
--------------------------------------------------------------
$molecule
0 1
Cl1	0.0000	0.0000	0.0000
Cl2	0.0000	0.0000	1.9879
$end

$rem
jobtype sp
method wB97M-V
xc_grid 000099000590
basis aug-cc-pcVQZ
max_scf_cycles 200
thresh 14
scf_convergence 8
scf_algorithm gdm
symmetry false
sym_ignore true
unrestricted false
gen_scfman true
internal_stability_iter 15
internal_stability_davidson_iter 200
mem_total 128000
n_frozen_core 0
$end



--------------------------------------------------------------
 ----------------------------------------------------------------
             Standard Nuclear Orientation (Angstroms)
    I     Atom           X                Y                Z
 ----------------------------------------------------------------
    1      Cl      0.0000000000     0.0000000000     0.0000000000
    2      Cl      0.0000000000     0.0000000000     1.9879000000
 ----------------------------------------------------------------
 Nuclear Repulsion Energy =    76.9315427945 hartrees
 There are       17 alpha and       17 beta electrons
 Requested basis set is aug-cc-pCVQZ
 There are 68 shells and 268 basis functions

 Total QAlloc Memory Limit 128000 MB
 Mega-Array Size       188 MB
 MEM_STATIC part       192 MB

                       Distance Matrix (Angstroms)
             Cl(  1)
   Cl(  2)  1.987900
 
 A cutoff of  1.0D-14 yielded   2208 shell pairs
 There are     34276 function pairs (     57990 Cartesian)
 
 -------------------------------------------------------
 OpenMP Integral Computing Module                       
 Release: version 1.0, May 2013, Q-Chem Inc. Pittsburgh 
 -------------------------------------------------------
 Integral Job Info:
 Integral job number is                      11
 Integral operator is                         1
 short-range coefficients              15000000
 long-range coefficients              100000000
 Omega coefficients                         300
 if combine SR and LR in K                    1
 Integral screening is                        0
 Integral computing path is                   2
 max size of driver memory is           3200000
 size of driver memory is               1704330
 size of scratch memory is             28840424
 max col of scratch BK array              50625
 max len of scratch array in speh3         2114
 max len of scratch index in speh4           50
 max int batch size is                      520
 min int batch size is                       52
 fixed nKL is                                21
 max L of basis functions is                  4
 order of int derivative is                   0
 number of shells is                         68
 number of basis is                         348
 number of cartesian basis is               348
 number of contracted shell pairs          2208
 number of primitive shell pairs          10830
 maxK2 (contraction) of shell pair          169
 max number of K2 of shell pair               1
 max number of CS2 of shell pair            202
 max number of PS2 of shell pair           2028
 mem total for path MDJ                  752464
 -------------------------------------------------------
 Smallest overlap matrix eigenvalue = 2.44E-05

 Scale SEOQF with 1.000000e-01/1.000000e-01/1.000000e-01

 Standard Electronic Orientation quadrupole field applied
 Nucleus-field energy     =    -0.0000000072 hartrees
 Guess from superposition of atomic densities
 Warning:  Energy on first SCF cycle will be non-variational
 SAD guess density has 34.000000 electrons

 -----------------------------------------------------------------------
  General SCF calculation program by
  Eric Jon Sundstrom, Paul Horn, Yuezhi Mao, Dmitri Zuev, Alec White,
  David Stuck, Shaama M.S., Shane Yost, Joonho Lee, David Small,
  Daniel Levine, Susi Lehtola, Hugh Burton, Evgeny Epifanovsky
 -----------------------------------------------------------------------
 Exchange:     0.1500 Hartree-Fock + 1.0000 wB97M-V + LR-HF
 Correlation:  1.0000 wB97M-V
 Using Euler-Maclaurin-Lebedev (99,590) quadrature formula
 Nonlocal Correlation:  VV10 with C = 0.0100 and b = 6.00 and scale = 1.00000
 Grid used for NLC:  SG-1 standard quadrature
Running Object-Oriented RKS (RHF)
 Nonlocal correlation = 0.142127800599
 Nonlocal correlation = 0.142291958647
We will preform up to 15 macro iterations over saddle points until a stable solution is found
Energy prior to optimization (guess energy) = -920.358853168040
Begin Timing: Total SCF Calculation
Begin Timing: SCF Single Stationary Point Calculation
begin iterations for algorithm: GDM          
the SCF tolerance is set to 1.00e-08
 Nonlocal correlation = 1.423223860232e-01
    1    -920.3588531680      5.96e-02     00000  Normal BFGS step
 Nonlocal correlation = 1.423025246175e-01
    2    -920.3684573881      3.53e-02     00000  Normal BFGS step
 Nonlocal correlation = 1.423048829237e-01
    3    -920.3745778526      2.23e-03     00000  Normal BFGS step
 Nonlocal correlation = 1.423050353716e-01
    4    -920.3746145048      6.98e-04     00000  Normal BFGS step
 Nonlocal correlation = 1.423053677934e-01
    5    -920.3746171027      3.38e-05     00000  Normal BFGS step
 Nonlocal correlation = 1.423052841738e-01
    6    -920.3746171253      1.09e-05     00000  Normal BFGS step
 Nonlocal correlation = 1.423052906918e-01
    7    -920.3746171274      1.62e-06     00000  Normal BFGS step
 Nonlocal correlation = 1.423052903303e-01
    8    -920.3746171274      1.94e-07     00000  Normal BFGS step
 Nonlocal correlation = 1.423052904094e-01
    9    -920.3746171274      4.02e-08     00000  Normal BFGS step
 Nonlocal correlation = 1.423052904004e-01
   10    -920.3746171274      1.13e-08     00000  Normal BFGS step
 Nonlocal correlation = 1.423052903967e-01
   11    -920.3746171274      5.95e-09     00000 Convergence criterion met
Timing for Single Stationary Point: 248.00s (wall), 3895.98s (cpu)
Begin Timing: Stability
===================================================
Beginning Test for Internal Stability
===================================================
generating davidson guess vectors based on koopmans excitations
computing hessian-vector products by finite difference
 Nonlocal correlation = 0.142305290372
 Nonlocal correlation = 0.142305290418
 Nonlocal correlation = 0.142305290202
 Nonlocal correlation = 0.142305290588
 Nonlocal correlation = 0.142305290397
    1      3.02e+00     00000 Davidson Iteration
computing hessian-vector products by finite difference
 Nonlocal correlation = 1.423052913039e-01
 Nonlocal correlation = 1.423052894975e-01
 Nonlocal correlation = 1.423052890916e-01
 Nonlocal correlation = 1.423052917101e-01
 Nonlocal correlation = 1.423052903967e-01
    2      6.43e-01     00000 Davidson Iteration
computing hessian-vector products by finite difference
 Nonlocal correlation = 1.423052903134e-01
 Nonlocal correlation = 1.423052904774e-01
 Nonlocal correlation = 1.423052912892e-01
 Nonlocal correlation = 1.423052895015e-01
 Nonlocal correlation = 1.423052903967e-01
    3      4.27e-01     00000 Davidson Iteration
computing hessian-vector products by finite difference
 Nonlocal correlation = 1.423052913037e-01
 Nonlocal correlation = 1.423052895007e-01
 Nonlocal correlation = 1.423052870325e-01
 Nonlocal correlation = 1.423052937720e-01
 Nonlocal correlation = 1.423052903967e-01
    4      2.31e-02     00000 Davidson Iteration
computing hessian-vector products by finite difference
 Nonlocal correlation = 1.423052981021e-01
 Nonlocal correlation = 1.423052826941e-01
 Nonlocal correlation = 1.423052787413e-01
 Nonlocal correlation = 1.423053020550e-01
 Nonlocal correlation = 1.423052903967e-01
    5      1.21e-02     00000 Davidson Iteration
computing hessian-vector products by finite difference
 Nonlocal correlation = 1.423052651765e-01
 Nonlocal correlation = 1.423053156255e-01
 Nonlocal correlation = 1.423053372866e-01
 Nonlocal correlation = 1.423052435240e-01
 Nonlocal correlation = 1.423052903967e-01
    6      1.22e-03     00000 Davidson Iteration
computing hessian-vector products by finite difference
 Nonlocal correlation = 1.423052529031e-01
 Nonlocal correlation = 1.423053279002e-01
 Nonlocal correlation = 1.423053897967e-01
 Nonlocal correlation = 1.423051909981e-01
 Nonlocal correlation = 1.423052903967e-01
    7      4.83e-04     00000 Davidson Converged
converged_eigenvalues
   0.5987
   0.5987
Threshold for negative eigenvalues: -1.0e-05
solution was a local minimum (stable)
===================================================
End Test for Internal Stability
===================================================
Our SCF solution is stable!
Timing for Total SCF: 1031.00s (wall), 16252.03s (cpu)
 Total energy in the final basis set =     -920.3746171274
    ==================================================
              The end of Object-Oriented SCFman       
    ==================================================
 
 --------------------------------------------------------------
 
                    Orbital Energies (a.u.)
 --------------------------------------------------------------
 
 Alpha MOs
 -- Occupied --
*******-101.926  -9.698  -9.698  -7.405  -7.405  -7.393  -7.393
 -7.393  -7.393  -1.061  -0.889  -0.566  -0.517  -0.517  -0.404
 -0.404
 -- Virtual --
 -0.035   0.052   0.060   0.069   0.069   0.091   0.097   0.097
  0.183   0.190   0.190   0.232   0.232   0.273   0.286   0.286
  0.309   0.335   0.335   0.408   0.408   0.463   0.478   0.478
  0.486   0.491   0.491   0.505   0.518   0.518   0.591   0.591
  0.608   0.671   0.671   0.686   0.686   0.721   0.749   0.749
  0.825   0.825   0.944   0.964   0.964   0.996   0.996   1.036
  1.070   1.070   1.114   1.403   1.403   1.419   1.427   1.427
  1.428   1.492   1.492   1.498   1.498   1.545   1.545   1.605
  1.605   1.629   1.650   1.650   1.656   1.656   1.792   1.792
  1.797   1.797   1.800   1.800   1.835   1.835   1.908   1.908
  1.985   1.986   1.986   2.031   2.031   2.031   2.031   2.064
  2.114   2.114   2.276   2.306   2.306   2.333   2.434   2.434
  2.530   2.688   2.943   2.943   3.213   3.778   3.778   3.846
  3.846   3.864   3.864   3.906   3.991   3.991   4.184   4.236
  4.236   4.307   4.308   4.308   4.327   4.327   4.350   4.350
  4.356   4.356   4.364   4.364   4.366   4.366   4.419   4.419
  4.463   4.463   4.484   4.512   4.512   4.545   4.545   4.565
  4.565   4.691   4.744   4.744   5.052   5.052   5.386   5.386
  5.579   5.913   5.913   6.428   6.482   9.554  10.126  11.523
 11.523  11.560  11.560  11.581  11.581  11.718  11.796  11.796
 12.629  17.357  17.357  17.701  17.701  17.949  18.330  20.967
 20.967  20.975  20.975  20.993  20.993  20.994  21.013  21.013
 21.025  21.025  21.072  21.072  21.136  33.027  33.617  37.014
 37.014  37.044  37.044  37.056  37.056  37.169  37.204  37.204
 37.698  51.115  51.115  51.405  51.405  51.627  51.956  64.689
 64.691  64.691  64.695  64.695  64.695  64.695  64.696  64.697
 64.697  64.699  64.699  64.700  64.700  64.706  64.706  64.707
 64.707  75.119  75.119  75.123  75.123  75.132  75.133  75.133
 75.145  75.145  75.150  75.150  75.176  75.176  75.203  96.925
 97.655 109.968 109.970 109.993 109.993 109.998 110.000 110.085
110.106 110.106 110.430 165.166 165.166 165.336 165.336 165.482
165.664 453.949 457.094
 --------------------------------------------------------------
 
          Ground-State Mulliken Net Atomic Charges

     Atom                 Charge (a.u.)
  ----------------------------------------
      1 Cl                   -0.000000
      2 Cl                    0.000000
  ----------------------------------------
  Sum of atomic charges =    -0.000000

 -----------------------------------------------------------------
                    Cartesian Multipole Moments
 -----------------------------------------------------------------
    Charge (ESU x 10^10)
                 0.0000
    Dipole Moment (Debye)
         X      -0.0000      Y      -0.0000      Z       0.0000
       Tot       0.0000
    Quadrupole Moments (Debye-Ang)
        XX     -25.5243     XY      -0.0000     YY     -25.5243
        XZ      -0.0000     YZ      -0.0000     ZZ     -22.4189
    Octopole Moments (Debye-Ang^2)
       XXX      -0.0000    XXY      -0.0000    XYY      -0.0000
       YYY      -0.0000    XXZ     -25.3698    XYZ       0.0000
       YYZ     -25.3698    XZZ      -0.0000    YZZ      -0.0000
       ZZZ     -66.8497
    Hexadecapole Moments (Debye-Ang^3)
      XXXX     -29.5429   XXXY      -0.0000   XXYY      -9.8476
      XYYY      -0.0000   YYYY     -29.5429   XXXZ      -0.0000
      XXYZ      -0.0000   XYYZ      -0.0000   YYYZ      -0.0000
      XXZZ     -60.2883   XYZZ       0.0000   YYZZ     -60.2883
      XZZZ      -0.0000   YZZZ      -0.0000   ZZZZ    -285.4093
 -----------------------------------------------------------------
Archival summary:
1\1\n0088.mhg0\SP\ProcedureUnspecified\BasisUnspecified\l2\yhljason\FriNov612:43:032020FriNov612:43:032020\0\\#,ProcedureUnspecified,BasisUnspecified,\\0,1\Cl\Cl,1,1.9879\\\@

 Total job time:  1062.82s(wall), 16749.10s(cpu) 
 Fri Nov  6 12:43:03 2020

        *************************************************************
        *                                                           *
        *  Thank you very much for using Q-Chem.  Have a nice day.  *
        *                                                           *
        *************************************************************


 
User input: 2 of 6 
 
Q-Chem Developer Version!
                  Welcome to Q-Chem
     A Quantum Leap Into The Future Of Chemistry


 Q-Chem 5.1, Q-Chem, Inc., Pleasanton, CA (2018)

 Yihan Shao,  Zhengting Gan,  E. Epifanovsky,  A. T. B. Gilbert,  M. Wormit,  
 J. Kussmann,  A. W. Lange,  A. Behn,  Jia Deng,  Xintian Feng,  D. Ghosh,  
 M. Goldey,  P. R. Horn,  L. D. Jacobson,  I. Kaliman,  T. Kus,  A. Landau,  
 Jie Liu,  E. I. Proynov,  R. M. Richard,  R. P. Steele,  E. J. Sundstrom,  
 H. L. Woodcock III,  P. M. Zimmerman,  D. Zuev,  B. Albrecht,  E. Alguire,  
 S. A. Baeppler,  D. Barton,  Z. Benda,  Y. A. Bernard,  E. J. Berquist,  
 K. B. Bravaya,  H. Burton,  D. Casanova,  Chun-Min Chang,  Yunqing Chen,  
 A. Chien,  K. D. Closser,  M. P. Coons,  S. Coriani,  S. Dasgupta,  
 A. L. Dempwolff,  M. Diedenhofen,  Hainam Do,  R. G. Edgar,  Po-Tung Fang,  
 S. Faraji,  S. Fatehi,  Qingguo Feng,  K. D. Fenk,  J. Fosso-Tande,  
 Qinghui Ge,  A. Ghysels,  G. Gidofalvi,  J. Gomes,  J. Gonthier,  A. Gunina,  
 D. Hait,  M. W. D. Hanson-Heine,  P. H. P. Harbach,  A. W. Hauser,  
 J. E. Herr,  E. G. Hohenstein,  Z. C. Holden,  Kerwin Hui,  B. C. Huynh,  
 T.-C. Jagau,  Hyunjun Ji,  B. Kaduk,  K. Khistyaev,  Jaehoon Kim,  
 P. Klunzinger,  K. Koh,  D. Kosenkov,  L. Koulias,  T. Kowalczyk,  
 C. M. Krauter,  A. Kunitsa,  Ka Un Lao,  A. Laurent,  K. V. Lawler,  
 Joonho Lee,  D. Lefrancois,  S. Lehtola,  D. S. Levine,  Yi-Pei Li,  
 You-Sheng Lin,  Fenglai Liu,  E. Livshits,  A. Luenser,  P. Manohar,  
 E. Mansoor,  S. F. Manzer,  Shan-Ping Mao,  Yuezhi Mao,  N. Mardirossian,  
 A. V. Marenich,  T. Markovich,  L. A. Martinez-Martinez,  S. A. Maurer,  
 N. J. Mayhall,  S. C. McKenzie,  J.-M. Mewes,  A. F. Morrison,  
 J. W. Mullinax,  K. Nanda,  T. S. Nguyen-Beck,  R. Olivares-Amaya,  
 J. A. Parkhill,  T. M. Perrine,  F. Plasser,  P. Pokhilko,  S. Prager,  
 A. Prociuk,  E. Ramos,  D. R. Rehn,  F. Rob,  M. Schneider,  N. Sergueev,  
 S. M. Sharada,  S. Sharma,  D. W. Small,  T. Stauch,  T. Stein,  
 Yu-Chuan Su,  A. J. W. Thom,  A. Tkatchenko,  T. Tsuchimochi,  N. M. Tubman,  
 L. Vogt,  M. L. Vidal,  O. Vydrov,  M. A. Watson,  J. Wenzel,  
 M. de Wergifosse,  T. A. Wesolowski,  A. White,  J. Witte,  A. Yamada,  
 Jun Yang,  K. Yao,  S. Yeganeh,  S. R. Yost,  Zhi-Qiang You,  A. Zech,  
 Igor Ying Zhang,  Xing Zhang,  Yan Zhao,  Ying Zhu,  B. R. Brooks,  
 G. K. L. Chan,  C. J. Cramer,  M. S. Gordon,  W. J. Hehre,  A. Klamt,  
 M. W. Schmidt,  C. D. Sherrill,  D. G. Truhlar,  A. Aspuru-Guzik,  R. Baer,  
 A. T. Bell,  N. A. Besley,  Jeng-Da Chai,  A. E. DePrince, III,  
 R. A. DiStasio Jr.,  A. Dreuw,  B. D. Dunietz,  T. R. Furlani,  
 Chao-Ping Hsu,  Yousung Jung,  Jing Kong,  D. S. Lambrecht,  WanZhen Liang,  
 C. Ochsenfeld,  V. A. Rassolov,  L. V. Slipchenko,  J. E. Subotnik,  
 T. Van Voorhis,  J. M. Herbert,  A. I. Krylov,  P. M. W. Gill,  M. Head-Gordon

 Contributors to earlier versions of Q-Chem not listed above: 
 R. D. Adamson,  B. Austin,  J. Baker,  G. J. O. Beran,  K. Brandhorst,  
 S. T. Brown,  E. F. C. Byrd,  A. K. Chakraborty,  C.-L. Cheng,  
 Siu Hung Chien,  D. M. Chipman,  D. L. Crittenden,  H. Dachsel,  
 R. J. Doerksen,  A. D. Dutoi,  L. Fusti-Molnar,  W. A. Goddard III,  
 A. Golubeva-Zadorozhnaya,  S. R. Gwaltney,  G. Hawkins,  A. Heyden,  
 S. Hirata,  G. Kedziora,  F. J. Keil,  C. Kelley,  Jihan Kim,  R. A. King,  
 R. Z. Khaliullin,  P. P. Korambath,  W. Kurlancheek,  A. M. Lee,  M. S. Lee,  
 S. V. Levchenko,  Ching Yeh Lin,  D. Liotard,  R. C. Lochan,  I. Lotan,  
 P. E. Maslen,  N. Nair,  D. P. O'Neill,  D. Neuhauser,  E. Neuscamman,  
 C. M. Oana,  R. Olson,  B. Peters,  R. Peverati,  P. A. Pieniazek,  
 Y. M. Rhee,  J. Ritchie,  M. A. Rohrdanz,  E. Rosta,  N. J. Russ,  
 H. F. Schaefer III,  N. E. Schultz,  N. Shenvi,  A. C. Simmonett,  A. Sodt,  
 D. Stuck,  K. S. Thanthiriwatte,  V. Vanovschi,  Tao Wang,  A. Warshel,  
 C. F. Williams,  Q. Wu,  X. Xu,  W. Zhang

 Please cite Q-Chem as follows:
 Y. Shao et al., Mol. Phys. 113, 184-215 (2015)
 DOI: 10.1080/00268976.2014.952696

 Q-Chem 5.1.1 for Intel X86 EM64T Linux

 Parts of Q-Chem use Armadillo 8.300.2 (Tropical Shenanigans).
 http://arma.sourceforge.net/

 Q-Chem begins on Fri Nov  6 12:43:04 2020  

Host: n0088.mhg0
0

     Scratch files written to /local/scratch/users/yhljason/Cl2_wB97M2_aug-cc-pcVQZ.inp20201106122519//
The previous job contains 0 fragments, simply inherited here
Input Ideriv = 0
Curr. Ideriv = -1
Max.  Ideriv = 0
Analytic post-HF gradients are not available with non-HF exchange
Input Ideriv = 0
Curr. Ideriv = 0
Max.  Ideriv = 0

Checking the input file for inconsistencies... 	...done.

--------------------------------------------------------------
User input:
--------------------------------------------------------------
$molecule
read
$end

$rem
jobtype sp
exchange wB97M(2)
xc_grid 000099000590
basis aug-cc-pcVQZ
max_scf_cycles 200
thresh 14
scf_convergence 8
scf_algorithm gdm
symmetry false
sym_ignore true
unrestricted false
gen_scfman false
mem_total 128000
cc_memory 96000
cc_backend xm
mem_static 1500
n_frozen_core 0
scf_guess read
$end



--------------------------------------------------------------
 ----------------------------------------------------------------
             Standard Nuclear Orientation (Angstroms)
    I     Atom           X                Y                Z
 ----------------------------------------------------------------
    1      Cl      0.0000000000     0.0000000000     0.0000000000
    2      Cl      0.0000000000     0.0000000000     1.9879000000
 ----------------------------------------------------------------
 Nuclear Repulsion Energy =    76.9315427945 hartrees
 There are       17 alpha and       17 beta electrons
 Requested basis set is aug-cc-pCVQZ
 There are 68 shells and 268 basis functions

 Total QAlloc Memory Limit 128000 MB
 Mega-Array Size      1467 MB
 MEM_STATIC part      1500 MB

                       Distance Matrix (Angstroms)
             Cl(  1)
   Cl(  2)  1.987900
 
 A cutoff of  1.0D-14 yielded   2208 shell pairs
 There are     34276 function pairs (     57990 Cartesian)
 
 -------------------------------------------------------
 OpenMP Integral Computing Module                       
 Release: version 1.0, May 2013, Q-Chem Inc. Pittsburgh 
 -------------------------------------------------------
 Integral Job Info:
 Integral job number is                      11
 Integral operator is                         1
 short-range coefficients              15000000
 long-range coefficients              100000000
 Omega coefficients                         300
 if combine SR and LR in K                    1
 Integral screening is                        0
 Integral computing path is                   2
 max size of driver memory is           3200000
 size of driver memory is               1704330
 size of scratch memory is             28840424
 max col of scratch BK array              50625
 max len of scratch array in speh3         2114
 max len of scratch index in speh4           50
 max int batch size is                      520
 min int batch size is                       52
 fixed nKL is                                21
 max L of basis functions is                  4
 order of int derivative is                   0
 number of shells is                         68
 number of basis is                         348
 number of cartesian basis is               348
 number of contracted shell pairs          2208
 number of primitive shell pairs          10830
 maxK2 (contraction) of shell pair          169
 max number of K2 of shell pair               1
 max number of CS2 of shell pair            202
 max number of PS2 of shell pair           2028
 mem total for path MDJ                  752464
 -------------------------------------------------------
 Smallest overlap matrix eigenvalue = 2.44E-05

 Scale SEOQF with 1.000000e-01/1.000000e-01/1.000000e-01

 Standard Electronic Orientation quadrupole field applied
 Nucleus-field energy     =    -0.0000000072 hartrees
 Guess MOs from SCF MO coefficient file
 Reading MOs from coefficient file
 Reading MOs from coefficient file
 Long-range K will be added via erf
 Coulomb attenuation parameter = 0.3 bohr**(-1)
 A restricted hybrid HF-DFT SCF calculation will be
 performed using Geometric Direct Minimization
 Exchange:     0.1500 Hartree-Fock + 1.0000 wB97M-V + LR-HF
 Correlation:  1.0000 wB97M-V
 Using Euler-Maclaurin-Lebedev (99,590) quadrature formula
 Nonlocal Correlation:  VV10 with C = 0.0100 and b = 6.00 and scale = 1.00000
 Grid used for NLC:  SG-1 standard quadrature
 SCF converges when RMS gradient is below 1.0E-08
Using Q-Chem read-in guess as SCF_GUESS READ specified.

 using 16 threads for integral computing
 -------------------------------------------------------
 OpenMP Integral computing Module                
 Release: version 1.0, May 2013, Q-Chem Inc. Pittsburgh 
 -------------------------------------------------------
 using 16 threads for integral computing
 -------------------------------------------------------
 OpenMP Integral computing Module                
 Release: version 1.0, May 2013, Q-Chem Inc. Pittsburgh 
 -------------------------------------------------------
TIMEINFO->: J/JK contribution 329.28 sec.
 -------------------------------------------------------
 OpenMP BLAS3 based DFT computing Module                
 Release: version 1.0, May 2013, Q-Chem Inc. Pittsburgh 
 -------------------------------------------------------
 -------------------------------------------------------
 OpenMP BLAS3 based DFT computing Module                
 Release: version 1.0, May 2013, Q-Chem Inc. Pittsburgh 
 -------------------------------------------------------
 -------------------------------------------------------
 OpenMP BLAS3 based DFT computing Module                
 Release: version 1.0, May 2013, Q-Chem Inc. Pittsburgh 
 -------------------------------------------------------
 ---------------------------------------
  Cycle       Energy        RMS Gradient
 ---------------------------------------
    1    -920.3746171274      1.85E-10 Normal BFGS step
TIMEINFO->: J/JK contribution 333.60 sec.
 Nonlocal correlation =     0.0458203825
    2    -920.3746171274      4.87E-11 Convergence criterion met
 ---------------------------------------
 wB97M-V orbitals are now ready for the wB97M(2) calculation.
 wB97M(2) energy = Exch (0.62194 SRHF + 1.0 LRHF + wB97M(2)_EXCH) + 
               Corr (wB97M(2)_CORR + 0.34096 MP2 + 0.65904 VV10(b=10))
 SCF time:  CPU 1262.80 s  wall 81.09 s
 SCF   energy in the final basis set = -920.23271072
 Total energy in the final basis set = -920.23271072
 
 Components of the MP2 correlation energy:
        aaaa  correlation energy =        -0.0588954946 au
        abab  correlation energy =        -0.3402580655 au
        bbbb  correlation energy =        -0.0588954946 au
        non-Brillouin singles    =        -0.0000000000 au

 Total  MP2   correlation energy =                    -0.45804905 au
        MP2         total energy =                  -920.69075977 au
 
 --------------------------------------------------------------
 
                    Orbital Energies (a.u.)
 --------------------------------------------------------------
 
 Alpha MOs
 -- Occupied --
*******-101.926  -9.698  -9.698  -7.405  -7.405  -7.393  -7.393
 -7.393  -7.393  -1.061  -0.889  -0.566  -0.517  -0.517  -0.404
 -0.404
 -- Virtual --
 -0.035   0.052   0.060   0.069   0.069   0.091   0.097   0.097
  0.183   0.190   0.190   0.232   0.232   0.273   0.286   0.286
  0.309   0.335   0.335   0.408   0.408   0.463   0.478   0.478
  0.486   0.491   0.491   0.505   0.518   0.518   0.591   0.591
  0.608   0.671   0.671   0.686   0.686   0.721   0.749   0.749
  0.825   0.825   0.944   0.964   0.964   0.996   0.996   1.036
  1.070   1.070   1.114   1.403   1.403   1.419   1.427   1.427
  1.428   1.492   1.492   1.498   1.498   1.545   1.545   1.605
  1.605   1.629   1.650   1.650   1.656   1.656   1.792   1.792
  1.797   1.797   1.800   1.800   1.835   1.835   1.908   1.908
  1.985   1.986   1.986   2.031   2.031   2.031   2.031   2.064
  2.114   2.114   2.276   2.306   2.306   2.333   2.434   2.434
  2.530   2.688   2.943   2.943   3.213   3.778   3.778   3.846
  3.846   3.864   3.864   3.906   3.991   3.991   4.184   4.236
  4.236   4.307   4.308   4.308   4.327   4.327   4.350   4.350
  4.356   4.356   4.364   4.364   4.366   4.366   4.419   4.419
  4.463   4.463   4.484   4.512   4.512   4.545   4.545   4.565
  4.565   4.691   4.744   4.744   5.052   5.052   5.386   5.386
  5.579   5.913   5.913   6.428   6.482   9.554  10.126  11.523
 11.523  11.560  11.560  11.581  11.581  11.718  11.796  11.796
 12.629  17.357  17.357  17.701  17.701  17.949  18.330  20.967
 20.967  20.975  20.975  20.993  20.993  20.994  21.013  21.013
 21.025  21.025  21.072  21.072  21.136  33.027  33.617  37.014
 37.014  37.044  37.044  37.056  37.056  37.169  37.204  37.204
 37.698  51.115  51.115  51.405  51.405  51.627  51.956  64.689
 64.691  64.691  64.695  64.695  64.695  64.695  64.696  64.697
 64.697  64.699  64.699  64.700  64.700  64.706  64.706  64.707
 64.707  75.119  75.119  75.123  75.123  75.132  75.133  75.133
 75.145  75.145  75.150  75.150  75.176  75.176  75.203  96.925
 97.655 109.968 109.970 109.993 109.993 109.998 110.000 110.085
110.106 110.106 110.430 165.166 165.166 165.336 165.336 165.482
165.664 453.949 457.094
 --------------------------------------------------------------
 
          Ground-State Mulliken Net Atomic Charges

     Atom                 Charge (a.u.)
  ----------------------------------------
      1 Cl                   -0.000000
      2 Cl                    0.000000
  ----------------------------------------
  Sum of atomic charges =    -0.000000

 -----------------------------------------------------------------
                    Cartesian Multipole Moments
 -----------------------------------------------------------------
    Charge (ESU x 10^10)
                -0.0000
    Dipole Moment (Debye)
         X      -0.0000      Y      -0.0000      Z       0.0000
       Tot       0.0000
    Quadrupole Moments (Debye-Ang)
        XX     -25.5243     XY       0.0000     YY     -25.5243
        XZ      -0.0000     YZ      -0.0000     ZZ     -22.4189
    Octopole Moments (Debye-Ang^2)
       XXX       0.0000    XXY      -0.0000    XYY       0.0000
       YYY      -0.0000    XXZ     -25.3698    XYZ      -0.0000
       YYZ     -25.3698    XZZ      -0.0000    YZZ      -0.0000
       ZZZ     -66.8497
    Hexadecapole Moments (Debye-Ang^3)
      XXXX     -29.5429   XXXY       0.0000   XXYY      -9.8476
      XYYY       0.0000   YYYY     -29.5429   XXXZ      -0.0000
      XXYZ      -0.0000   XYYZ      -0.0000   YYYZ      -0.0000
      XXZZ     -60.2883   XYZZ      -0.0000   YYZZ     -60.2883
      XZZZ      -0.0000   YZZZ      -0.0000   ZZZZ    -285.4093
 -----------------------------------------------------------------
Archival summary:
1\1\n0088.mhg0\SP\ProcedureUnspecified\BasisUnspecified\l2\yhljason\FriNov612:51:412020FriNov612:51:412020\0\\#,ProcedureUnspecified,BasisUnspecified,\\0,1\Cl\Cl,1,1.9879\\\@

 Total job time:  517.51s(wall), 8136.43s(cpu) 
 Fri Nov  6 12:51:41 2020

        *************************************************************
        *                                                           *
        *  Thank you very much for using Q-Chem.  Have a nice day.  *
        *                                                           *
        *************************************************************


 
User input: 3 of 6 
 
Q-Chem Developer Version!
                  Welcome to Q-Chem
     A Quantum Leap Into The Future Of Chemistry


 Q-Chem 5.1, Q-Chem, Inc., Pleasanton, CA (2018)

 Yihan Shao,  Zhengting Gan,  E. Epifanovsky,  A. T. B. Gilbert,  M. Wormit,  
 J. Kussmann,  A. W. Lange,  A. Behn,  Jia Deng,  Xintian Feng,  D. Ghosh,  
 M. Goldey,  P. R. Horn,  L. D. Jacobson,  I. Kaliman,  T. Kus,  A. Landau,  
 Jie Liu,  E. I. Proynov,  R. M. Richard,  R. P. Steele,  E. J. Sundstrom,  
 H. L. Woodcock III,  P. M. Zimmerman,  D. Zuev,  B. Albrecht,  E. Alguire,  
 S. A. Baeppler,  D. Barton,  Z. Benda,  Y. A. Bernard,  E. J. Berquist,  
 K. B. Bravaya,  H. Burton,  D. Casanova,  Chun-Min Chang,  Yunqing Chen,  
 A. Chien,  K. D. Closser,  M. P. Coons,  S. Coriani,  S. Dasgupta,  
 A. L. Dempwolff,  M. Diedenhofen,  Hainam Do,  R. G. Edgar,  Po-Tung Fang,  
 S. Faraji,  S. Fatehi,  Qingguo Feng,  K. D. Fenk,  J. Fosso-Tande,  
 Qinghui Ge,  A. Ghysels,  G. Gidofalvi,  J. Gomes,  J. Gonthier,  A. Gunina,  
 D. Hait,  M. W. D. Hanson-Heine,  P. H. P. Harbach,  A. W. Hauser,  
 J. E. Herr,  E. G. Hohenstein,  Z. C. Holden,  Kerwin Hui,  B. C. Huynh,  
 T.-C. Jagau,  Hyunjun Ji,  B. Kaduk,  K. Khistyaev,  Jaehoon Kim,  
 P. Klunzinger,  K. Koh,  D. Kosenkov,  L. Koulias,  T. Kowalczyk,  
 C. M. Krauter,  A. Kunitsa,  Ka Un Lao,  A. Laurent,  K. V. Lawler,  
 Joonho Lee,  D. Lefrancois,  S. Lehtola,  D. S. Levine,  Yi-Pei Li,  
 You-Sheng Lin,  Fenglai Liu,  E. Livshits,  A. Luenser,  P. Manohar,  
 E. Mansoor,  S. F. Manzer,  Shan-Ping Mao,  Yuezhi Mao,  N. Mardirossian,  
 A. V. Marenich,  T. Markovich,  L. A. Martinez-Martinez,  S. A. Maurer,  
 N. J. Mayhall,  S. C. McKenzie,  J.-M. Mewes,  A. F. Morrison,  
 J. W. Mullinax,  K. Nanda,  T. S. Nguyen-Beck,  R. Olivares-Amaya,  
 J. A. Parkhill,  T. M. Perrine,  F. Plasser,  P. Pokhilko,  S. Prager,  
 A. Prociuk,  E. Ramos,  D. R. Rehn,  F. Rob,  M. Schneider,  N. Sergueev,  
 S. M. Sharada,  S. Sharma,  D. W. Small,  T. Stauch,  T. Stein,  
 Yu-Chuan Su,  A. J. W. Thom,  A. Tkatchenko,  T. Tsuchimochi,  N. M. Tubman,  
 L. Vogt,  M. L. Vidal,  O. Vydrov,  M. A. Watson,  J. Wenzel,  
 M. de Wergifosse,  T. A. Wesolowski,  A. White,  J. Witte,  A. Yamada,  
 Jun Yang,  K. Yao,  S. Yeganeh,  S. R. Yost,  Zhi-Qiang You,  A. Zech,  
 Igor Ying Zhang,  Xing Zhang,  Yan Zhao,  Ying Zhu,  B. R. Brooks,  
 G. K. L. Chan,  C. J. Cramer,  M. S. Gordon,  W. J. Hehre,  A. Klamt,  
 M. W. Schmidt,  C. D. Sherrill,  D. G. Truhlar,  A. Aspuru-Guzik,  R. Baer,  
 A. T. Bell,  N. A. Besley,  Jeng-Da Chai,  A. E. DePrince, III,  
 R. A. DiStasio Jr.,  A. Dreuw,  B. D. Dunietz,  T. R. Furlani,  
 Chao-Ping Hsu,  Yousung Jung,  Jing Kong,  D. S. Lambrecht,  WanZhen Liang,  
 C. Ochsenfeld,  V. A. Rassolov,  L. V. Slipchenko,  J. E. Subotnik,  
 T. Van Voorhis,  J. M. Herbert,  A. I. Krylov,  P. M. W. Gill,  M. Head-Gordon

 Contributors to earlier versions of Q-Chem not listed above: 
 R. D. Adamson,  B. Austin,  J. Baker,  G. J. O. Beran,  K. Brandhorst,  
 S. T. Brown,  E. F. C. Byrd,  A. K. Chakraborty,  C.-L. Cheng,  
 Siu Hung Chien,  D. M. Chipman,  D. L. Crittenden,  H. Dachsel,  
 R. J. Doerksen,  A. D. Dutoi,  L. Fusti-Molnar,  W. A. Goddard III,  
 A. Golubeva-Zadorozhnaya,  S. R. Gwaltney,  G. Hawkins,  A. Heyden,  
 S. Hirata,  G. Kedziora,  F. J. Keil,  C. Kelley,  Jihan Kim,  R. A. King,  
 R. Z. Khaliullin,  P. P. Korambath,  W. Kurlancheek,  A. M. Lee,  M. S. Lee,  
 S. V. Levchenko,  Ching Yeh Lin,  D. Liotard,  R. C. Lochan,  I. Lotan,  
 P. E. Maslen,  N. Nair,  D. P. O'Neill,  D. Neuhauser,  E. Neuscamman,  
 C. M. Oana,  R. Olson,  B. Peters,  R. Peverati,  P. A. Pieniazek,  
 Y. M. Rhee,  J. Ritchie,  M. A. Rohrdanz,  E. Rosta,  N. J. Russ,  
 H. F. Schaefer III,  N. E. Schultz,  N. Shenvi,  A. C. Simmonett,  A. Sodt,  
 D. Stuck,  K. S. Thanthiriwatte,  V. Vanovschi,  Tao Wang,  A. Warshel,  
 C. F. Williams,  Q. Wu,  X. Xu,  W. Zhang

 Please cite Q-Chem as follows:
 Y. Shao et al., Mol. Phys. 113, 184-215 (2015)
 DOI: 10.1080/00268976.2014.952696

 Q-Chem 5.1.1 for Intel X86 EM64T Linux

 Parts of Q-Chem use Armadillo 8.300.2 (Tropical Shenanigans).
 http://arma.sourceforge.net/

 Q-Chem begins on Fri Nov  6 12:51:41 2020  

Host: n0088.mhg0
0

     Scratch files written to /local/scratch/users/yhljason/Cl2_wB97M2_aug-cc-pcVQZ.inp20201106122519//
The previous job contains 0 fragments, simply inherited here
Input Ideriv = 2
Curr. Ideriv = -1
Max.  Ideriv = 2
Input Ideriv = 1
Curr. Ideriv = 2
Max.  Ideriv = 1

Checking the input file for inconsistencies... 	...done.

--------------------------------------------------------------
User input:
--------------------------------------------------------------
$molecule
read
$end

$rem

jobtype sp
method wb97m-v
xc_grid 000099000590
basis aug-cc-pcVQZ
max_scf_cycles 200
thresh 14
scf_convergence 8
mem_total 128000
cc_memory 96000
cc_backend xm
mem_static 1500
symmetry false
sym_ignore true
scf_guess read
unrestricted false
scf_algorithm gdm
n_frozen_core 0
gen_scfman true
$end

$multipole_field
Z 0.0001
$end



--------------------------------------------------------------
 ----------------------------------------------------------------
             Standard Nuclear Orientation (Angstroms)
    I     Atom           X                Y                Z
 ----------------------------------------------------------------
    1      Cl      0.0000000000     0.0000000000     0.0000000000
    2      Cl      0.0000000000     0.0000000000     1.9879000000
 ----------------------------------------------------------------
 Nuclear Repulsion Energy =    76.9315427945 hartrees
 There are       17 alpha and       17 beta electrons
 Requested basis set is aug-cc-pCVQZ
 There are 68 shells and 268 basis functions

 Total QAlloc Memory Limit 128000 MB
 Mega-Array Size      1467 MB
 MEM_STATIC part      1500 MB

                       Distance Matrix (Angstroms)
             Cl(  1)
   Cl(  2)  1.987900
 
 Applying Cartesian multipole field
    Component          Value
    ---------          -----
     (0,0,1)        1.00000E-04
 Nucleus-field energy     =     0.0063861972 hartrees
 A cutoff of  1.0D-14 yielded   2208 shell pairs
 There are     34276 function pairs (     57990 Cartesian)
 
 -------------------------------------------------------
 OpenMP Integral Computing Module                       
 Release: version 1.0, May 2013, Q-Chem Inc. Pittsburgh 
 -------------------------------------------------------
 Integral Job Info:
 Integral job number is                      11
 Integral operator is                         1
 short-range coefficients              15000000
 long-range coefficients              100000000
 Omega coefficients                         300
 if combine SR and LR in K                    1
 Integral screening is                        0
 Integral computing path is                   2
 max size of driver memory is           3200000
 size of driver memory is               1704330
 size of scratch memory is             28840424
 max col of scratch BK array              50625
 max len of scratch array in speh3         2114
 max len of scratch index in speh4           50
 max int batch size is                      520
 min int batch size is                       52
 fixed nKL is                                21
 max L of basis functions is                  4
 order of int derivative is                   0
 number of shells is                         68
 number of basis is                         348
 number of cartesian basis is               348
 number of contracted shell pairs          2208
 number of primitive shell pairs          10830
 maxK2 (contraction) of shell pair          169
 max number of K2 of shell pair               1
 max number of CS2 of shell pair            202
 max number of PS2 of shell pair           2028
 mem total for path MDJ                  752464
 -------------------------------------------------------
 Smallest overlap matrix eigenvalue = 2.44E-05
 Guess MOs from SCF MO coefficient file

 -----------------------------------------------------------------------
  General SCF calculation program by
  Eric Jon Sundstrom, Paul Horn, Yuezhi Mao, Dmitri Zuev, Alec White,
  David Stuck, Shaama M.S., Shane Yost, Joonho Lee, David Small,
  Daniel Levine, Susi Lehtola, Hugh Burton, Evgeny Epifanovsky
 -----------------------------------------------------------------------
 Exchange:     0.1500 Hartree-Fock + 1.0000 wB97M-V + LR-HF
 Correlation:  1.0000 wB97M-V
 Using Euler-Maclaurin-Lebedev (99,590) quadrature formula
 Nonlocal Correlation:  VV10 with C = 0.0100 and b = 6.00 and scale = 1.00000
 Grid used for NLC:  SG-1 standard quadrature
 using 16 threads for integral computing
 -------------------------------------------------------
 OpenMP Integral computing Module                
 Release: version 1.0, May 2013, Q-Chem Inc. Pittsburgh 
 -------------------------------------------------------
 using 16 threads for integral computing
 -------------------------------------------------------
 OpenMP Integral computing Module                
 Release: version 1.0, May 2013, Q-Chem Inc. Pittsburgh 
 -------------------------------------------------------
 -------------------------------------------------------
 OpenMP BLAS3 based DFT computing Module                
 Release: version 1.0, May 2013, Q-Chem Inc. Pittsburgh 
 -------------------------------------------------------
 -------------------------------------------------------
 OpenMP BLAS3 based DFT computing Module                
 Release: version 1.0, May 2013, Q-Chem Inc. Pittsburgh 
 -------------------------------------------------------
 -------------------------------------------------------
 OpenMP BLAS3 based DFT computing Module                
 Release: version 1.0, May 2013, Q-Chem Inc. Pittsburgh 
 -------------------------------------------------------
 Nonlocal correlation = 0.142305290397
 A restricted SCF calculation will be
 performed using GDM
 SCF converges when RMS gradient is below 1.0e-08
 ---------------------------------------
  Cycle       Energy        RMS Gradient
 ---------------------------------------
 Nonlocal correlation = 1.423052901182e-01
    1    -920.3746171273      3.63e-04   Normal BFGS step
 Nonlocal correlation = 1.423052901421e-01
    2    -920.3746172858      1.36e-04   Normal BFGS step
 Nonlocal correlation = 1.423052902057e-01
    3    -920.3746173374      1.91e-05   Normal BFGS step
 Nonlocal correlation = 1.423052901760e-01
    4    -920.3746173399      5.68e-06   Normal BFGS step
 Nonlocal correlation = 1.423052901826e-01
    5    -920.3746173401      1.08e-06   Normal BFGS step
 Nonlocal correlation = 1.423052901796e-01
    6    -920.3746173402      3.28e-07   Normal BFGS step
 Nonlocal correlation = 1.423052901826e-01
    7    -920.3746173402      3.74e-08   Normal BFGS step
 Nonlocal correlation = 1.423052901804e-01
    8    -920.3746173402      1.15e-08   Normal BFGS step
 Nonlocal correlation = 1.423052901820e-01
    9    -920.3746173402      1.47e-09  Convergence criterion met
 ---------------------------------------
 SCF time:   CPU 3538.05s  wall 225.00s 
 SCF   energy in the final basis set =     -920.3746173402
 Total energy in the final basis set =     -920.3746173402
 
 --------------------------------------------------------------
 
                    Orbital Energies (a.u.)
 --------------------------------------------------------------
 
 Alpha MOs
 -- Occupied --
*******-101.926  -9.698  -9.698  -7.405  -7.405  -7.393  -7.393
 -7.393  -7.393  -1.061  -0.889  -0.566  -0.518  -0.518  -0.405
 -0.405
 -- Virtual --
 -0.035   0.052   0.060   0.069   0.069   0.091   0.096   0.096
  0.183   0.190   0.190   0.231   0.231   0.273   0.286   0.286
  0.308   0.335   0.335   0.408   0.408   0.463   0.478   0.478
  0.486   0.491   0.491   0.505   0.518   0.518   0.591   0.591
  0.608   0.671   0.671   0.686   0.686   0.721   0.749   0.749
  0.825   0.825   0.944   0.964   0.964   0.996   0.996   1.036
  1.070   1.070   1.113   1.403   1.403   1.418   1.427   1.427
  1.428   1.492   1.492   1.498   1.498   1.545   1.545   1.605
  1.605   1.628   1.650   1.650   1.655   1.655   1.792   1.792
  1.796   1.796   1.799   1.799   1.834   1.834   1.908   1.908
  1.985   1.986   1.986   2.031   2.031   2.031   2.031   2.064
  2.114   2.114   2.276   2.306   2.306   2.333   2.434   2.434
  2.530   2.688   2.943   2.943   3.213   3.778   3.778   3.846
  3.846   3.864   3.864   3.906   3.991   3.991   4.184   4.236
  4.236   4.307   4.308   4.308   4.327   4.327   4.350   4.350
  4.356   4.356   4.364   4.364   4.366   4.366   4.419   4.419
  4.463   4.463   4.484   4.512   4.512   4.545   4.545   4.565
  4.565   4.690   4.744   4.744   5.052   5.052   5.386   5.386
  5.579   5.912   5.912   6.428   6.482   9.554  10.126  11.522
 11.522  11.560  11.560  11.581  11.581  11.718  11.796  11.796
 12.629  17.357  17.357  17.701  17.701  17.949  18.330  20.967
 20.967  20.974  20.974  20.992  20.992  20.994  21.013  21.013
 21.025  21.025  21.072  21.072  21.135  33.027  33.616  37.014
 37.014  37.044  37.044  37.055  37.055  37.168  37.203  37.203
 37.698  51.115  51.115  51.405  51.405  51.627  51.956  64.689
 64.691  64.691  64.694  64.694  64.695  64.695  64.696  64.696
 64.697  64.699  64.699  64.700  64.700  64.706  64.706  64.707
 64.707  75.119  75.119  75.123  75.123  75.132  75.133  75.133
 75.145  75.145  75.150  75.150  75.176  75.176  75.203  96.925
 97.654 109.968 109.970 109.993 109.993 109.998 110.000 110.085
110.106 110.106 110.430 165.165 165.165 165.336 165.336 165.482
165.663 453.949 457.094
 --------------------------------------------------------------
 
          Ground-State Mulliken Net Atomic Charges

     Atom                 Charge (a.u.)
  ----------------------------------------
      1 Cl                    0.000592
      2 Cl                   -0.000592
  ----------------------------------------
  Sum of atomic charges =    -0.000000

 -----------------------------------------------------------------
                    Cartesian Multipole Moments
 -----------------------------------------------------------------
    Charge (ESU x 10^10)
                -0.0000
    Dipole Moment (Debye)
         X       0.0000      Y       0.0000      Z      -0.0108
       Tot       0.0108
    Quadrupole Moments (Debye-Ang)
        XX     -25.5243     XY       0.0000     YY     -25.5243
        XZ       0.0000     YZ       0.0000     ZZ     -22.4404
    Octopole Moments (Debye-Ang^2)
       XXX       0.0000    XXY       0.0000    XYY       0.0000
       YYY       0.0000    XXZ     -25.3777    XYZ      -0.0000
       YYZ     -25.3777    XZZ       0.0000    YZZ       0.0000
       ZZZ     -66.9283
    Hexadecapole Moments (Debye-Ang^3)
      XXXX     -29.5429   XXXY       0.0000   XXYY      -9.8476
      XYYY       0.0000   YYYY     -29.5429   XXXZ       0.0000
      XXYZ       0.0000   XYYZ       0.0000   YYYZ       0.0000
      XXZZ     -60.3040   XYZZ      -0.0000   YYZZ     -60.3040
      XZZZ       0.0000   YZZZ       0.0000   ZZZZ    -285.6371
 -----------------------------------------------------------------
Archival summary:
1\1\n0088.mhg0\SP\ProcedureUnspecified\BasisUnspecified\l2\yhljason\FriNov612:55:282020FriNov612:55:282020\0\\#,ProcedureUnspecified,BasisUnspecified,\\0,1\Cl\Cl,1,1.9879\\\@

 Total job time:  226.60s(wall), 3552.00s(cpu) 
 Fri Nov  6 12:55:28 2020

        *************************************************************
        *                                                           *
        *  Thank you very much for using Q-Chem.  Have a nice day.  *
        *                                                           *
        *************************************************************


 
User input: 4 of 6 
 
Q-Chem Developer Version!
                  Welcome to Q-Chem
     A Quantum Leap Into The Future Of Chemistry


 Q-Chem 5.1, Q-Chem, Inc., Pleasanton, CA (2018)

 Yihan Shao,  Zhengting Gan,  E. Epifanovsky,  A. T. B. Gilbert,  M. Wormit,  
 J. Kussmann,  A. W. Lange,  A. Behn,  Jia Deng,  Xintian Feng,  D. Ghosh,  
 M. Goldey,  P. R. Horn,  L. D. Jacobson,  I. Kaliman,  T. Kus,  A. Landau,  
 Jie Liu,  E. I. Proynov,  R. M. Richard,  R. P. Steele,  E. J. Sundstrom,  
 H. L. Woodcock III,  P. M. Zimmerman,  D. Zuev,  B. Albrecht,  E. Alguire,  
 S. A. Baeppler,  D. Barton,  Z. Benda,  Y. A. Bernard,  E. J. Berquist,  
 K. B. Bravaya,  H. Burton,  D. Casanova,  Chun-Min Chang,  Yunqing Chen,  
 A. Chien,  K. D. Closser,  M. P. Coons,  S. Coriani,  S. Dasgupta,  
 A. L. Dempwolff,  M. Diedenhofen,  Hainam Do,  R. G. Edgar,  Po-Tung Fang,  
 S. Faraji,  S. Fatehi,  Qingguo Feng,  K. D. Fenk,  J. Fosso-Tande,  
 Qinghui Ge,  A. Ghysels,  G. Gidofalvi,  J. Gomes,  J. Gonthier,  A. Gunina,  
 D. Hait,  M. W. D. Hanson-Heine,  P. H. P. Harbach,  A. W. Hauser,  
 J. E. Herr,  E. G. Hohenstein,  Z. C. Holden,  Kerwin Hui,  B. C. Huynh,  
 T.-C. Jagau,  Hyunjun Ji,  B. Kaduk,  K. Khistyaev,  Jaehoon Kim,  
 P. Klunzinger,  K. Koh,  D. Kosenkov,  L. Koulias,  T. Kowalczyk,  
 C. M. Krauter,  A. Kunitsa,  Ka Un Lao,  A. Laurent,  K. V. Lawler,  
 Joonho Lee,  D. Lefrancois,  S. Lehtola,  D. S. Levine,  Yi-Pei Li,  
 You-Sheng Lin,  Fenglai Liu,  E. Livshits,  A. Luenser,  P. Manohar,  
 E. Mansoor,  S. F. Manzer,  Shan-Ping Mao,  Yuezhi Mao,  N. Mardirossian,  
 A. V. Marenich,  T. Markovich,  L. A. Martinez-Martinez,  S. A. Maurer,  
 N. J. Mayhall,  S. C. McKenzie,  J.-M. Mewes,  A. F. Morrison,  
 J. W. Mullinax,  K. Nanda,  T. S. Nguyen-Beck,  R. Olivares-Amaya,  
 J. A. Parkhill,  T. M. Perrine,  F. Plasser,  P. Pokhilko,  S. Prager,  
 A. Prociuk,  E. Ramos,  D. R. Rehn,  F. Rob,  M. Schneider,  N. Sergueev,  
 S. M. Sharada,  S. Sharma,  D. W. Small,  T. Stauch,  T. Stein,  
 Yu-Chuan Su,  A. J. W. Thom,  A. Tkatchenko,  T. Tsuchimochi,  N. M. Tubman,  
 L. Vogt,  M. L. Vidal,  O. Vydrov,  M. A. Watson,  J. Wenzel,  
 M. de Wergifosse,  T. A. Wesolowski,  A. White,  J. Witte,  A. Yamada,  
 Jun Yang,  K. Yao,  S. Yeganeh,  S. R. Yost,  Zhi-Qiang You,  A. Zech,  
 Igor Ying Zhang,  Xing Zhang,  Yan Zhao,  Ying Zhu,  B. R. Brooks,  
 G. K. L. Chan,  C. J. Cramer,  M. S. Gordon,  W. J. Hehre,  A. Klamt,  
 M. W. Schmidt,  C. D. Sherrill,  D. G. Truhlar,  A. Aspuru-Guzik,  R. Baer,  
 A. T. Bell,  N. A. Besley,  Jeng-Da Chai,  A. E. DePrince, III,  
 R. A. DiStasio Jr.,  A. Dreuw,  B. D. Dunietz,  T. R. Furlani,  
 Chao-Ping Hsu,  Yousung Jung,  Jing Kong,  D. S. Lambrecht,  WanZhen Liang,  
 C. Ochsenfeld,  V. A. Rassolov,  L. V. Slipchenko,  J. E. Subotnik,  
 T. Van Voorhis,  J. M. Herbert,  A. I. Krylov,  P. M. W. Gill,  M. Head-Gordon

 Contributors to earlier versions of Q-Chem not listed above: 
 R. D. Adamson,  B. Austin,  J. Baker,  G. J. O. Beran,  K. Brandhorst,  
 S. T. Brown,  E. F. C. Byrd,  A. K. Chakraborty,  C.-L. Cheng,  
 Siu Hung Chien,  D. M. Chipman,  D. L. Crittenden,  H. Dachsel,  
 R. J. Doerksen,  A. D. Dutoi,  L. Fusti-Molnar,  W. A. Goddard III,  
 A. Golubeva-Zadorozhnaya,  S. R. Gwaltney,  G. Hawkins,  A. Heyden,  
 S. Hirata,  G. Kedziora,  F. J. Keil,  C. Kelley,  Jihan Kim,  R. A. King,  
 R. Z. Khaliullin,  P. P. Korambath,  W. Kurlancheek,  A. M. Lee,  M. S. Lee,  
 S. V. Levchenko,  Ching Yeh Lin,  D. Liotard,  R. C. Lochan,  I. Lotan,  
 P. E. Maslen,  N. Nair,  D. P. O'Neill,  D. Neuhauser,  E. Neuscamman,  
 C. M. Oana,  R. Olson,  B. Peters,  R. Peverati,  P. A. Pieniazek,  
 Y. M. Rhee,  J. Ritchie,  M. A. Rohrdanz,  E. Rosta,  N. J. Russ,  
 H. F. Schaefer III,  N. E. Schultz,  N. Shenvi,  A. C. Simmonett,  A. Sodt,  
 D. Stuck,  K. S. Thanthiriwatte,  V. Vanovschi,  Tao Wang,  A. Warshel,  
 C. F. Williams,  Q. Wu,  X. Xu,  W. Zhang

 Please cite Q-Chem as follows:
 Y. Shao et al., Mol. Phys. 113, 184-215 (2015)
 DOI: 10.1080/00268976.2014.952696

 Q-Chem 5.1.1 for Intel X86 EM64T Linux

 Parts of Q-Chem use Armadillo 8.300.2 (Tropical Shenanigans).
 http://arma.sourceforge.net/

 Q-Chem begins on Fri Nov  6 12:55:28 2020  

Host: n0088.mhg0
0

     Scratch files written to /local/scratch/users/yhljason/Cl2_wB97M2_aug-cc-pcVQZ.inp20201106122519//
The previous job contains 0 fragments, simply inherited here
Input Ideriv = 0
Curr. Ideriv = -1
Max.  Ideriv = 0
Analytic post-HF gradients are not available with non-HF exchange
Input Ideriv = 0
Curr. Ideriv = 0
Max.  Ideriv = 0

Checking the input file for inconsistencies... 	...done.

--------------------------------------------------------------
User input:
--------------------------------------------------------------
$molecule
read
$end

$rem

jobtype sp
exchange wb97m(2)
xc_grid 000099000590
basis aug-cc-pcVQZ
max_scf_cycles 200
thresh 14
scf_convergence 8
mem_total 128000
cc_memory 96000
cc_backend xm
mem_static 1500
symmetry false
sym_ignore true
scf_guess read
unrestricted false
scf_algorithm gdm
n_frozen_core 0
$end

$multipole_field
Z 0.0001
$end



--------------------------------------------------------------
 ----------------------------------------------------------------
             Standard Nuclear Orientation (Angstroms)
    I     Atom           X                Y                Z
 ----------------------------------------------------------------
    1      Cl      0.0000000000     0.0000000000     0.0000000000
    2      Cl      0.0000000000     0.0000000000     1.9879000000
 ----------------------------------------------------------------
 Nuclear Repulsion Energy =    76.9315427945 hartrees
 There are       17 alpha and       17 beta electrons
 Requested basis set is aug-cc-pCVQZ
 There are 68 shells and 268 basis functions

 Total QAlloc Memory Limit 128000 MB
 Mega-Array Size      1467 MB
 MEM_STATIC part      1500 MB

                       Distance Matrix (Angstroms)
             Cl(  1)
   Cl(  2)  1.987900
 
 Applying Cartesian multipole field
    Component          Value
    ---------          -----
     (0,0,1)        1.00000E-04
 Nucleus-field energy     =     0.0063861972 hartrees
 A cutoff of  1.0D-14 yielded   2208 shell pairs
 There are     34276 function pairs (     57990 Cartesian)
 
 -------------------------------------------------------
 OpenMP Integral Computing Module                       
 Release: version 1.0, May 2013, Q-Chem Inc. Pittsburgh 
 -------------------------------------------------------
 Integral Job Info:
 Integral job number is                      11
 Integral operator is                         1
 short-range coefficients              15000000
 long-range coefficients              100000000
 Omega coefficients                         300
 if combine SR and LR in K                    1
 Integral screening is                        0
 Integral computing path is                   2
 max size of driver memory is           3200000
 size of driver memory is               1704330
 size of scratch memory is             28840424
 max col of scratch BK array              50625
 max len of scratch array in speh3         2114
 max len of scratch index in speh4           50
 max int batch size is                      520
 min int batch size is                       52
 fixed nKL is                                21
 max L of basis functions is                  4
 order of int derivative is                   0
 number of shells is                         68
 number of basis is                         348
 number of cartesian basis is               348
 number of contracted shell pairs          2208
 number of primitive shell pairs          10830
 maxK2 (contraction) of shell pair          169
 max number of K2 of shell pair               1
 max number of CS2 of shell pair            202
 max number of PS2 of shell pair           2028
 mem total for path MDJ                  752464
 -------------------------------------------------------
 Smallest overlap matrix eigenvalue = 2.44E-05
 Guess MOs from SCF MO coefficient file
 Reading MOs from coefficient file
 Reading MOs from coefficient file
 Long-range K will be added via erf
 Coulomb attenuation parameter = 0.3 bohr**(-1)
 A restricted hybrid HF-DFT SCF calculation will be
 performed using Geometric Direct Minimization
 Exchange:     0.1500 Hartree-Fock + 1.0000 wB97M-V + LR-HF
 Correlation:  1.0000 wB97M-V
 Using Euler-Maclaurin-Lebedev (99,590) quadrature formula
 Nonlocal Correlation:  VV10 with C = 0.0100 and b = 6.00 and scale = 1.00000
 Grid used for NLC:  SG-1 standard quadrature
 SCF converges when RMS gradient is below 1.0E-08
Using Q-Chem read-in guess as SCF_GUESS READ specified.

 using 16 threads for integral computing
 -------------------------------------------------------
 OpenMP Integral computing Module                
 Release: version 1.0, May 2013, Q-Chem Inc. Pittsburgh 
 -------------------------------------------------------
 using 16 threads for integral computing
 -------------------------------------------------------
 OpenMP Integral computing Module                
 Release: version 1.0, May 2013, Q-Chem Inc. Pittsburgh 
 -------------------------------------------------------
TIMEINFO->: J/JK contribution 330.20 sec.
 -------------------------------------------------------
 OpenMP BLAS3 based DFT computing Module                
 Release: version 1.0, May 2013, Q-Chem Inc. Pittsburgh 
 -------------------------------------------------------
 -------------------------------------------------------
 OpenMP BLAS3 based DFT computing Module                
 Release: version 1.0, May 2013, Q-Chem Inc. Pittsburgh 
 -------------------------------------------------------
 -------------------------------------------------------
 OpenMP BLAS3 based DFT computing Module                
 Release: version 1.0, May 2013, Q-Chem Inc. Pittsburgh 
 -------------------------------------------------------
 ---------------------------------------
  Cycle       Energy        RMS Gradient
 ---------------------------------------
    1    -920.3746173402      7.27E-10 Normal BFGS step
TIMEINFO->: J/JK contribution 326.85 sec.
 Nonlocal correlation =     0.0458203824
    2    -920.3746173402      5.34E-10 Convergence criterion met
 ---------------------------------------
 wB97M-V orbitals are now ready for the wB97M(2) calculation.
 wB97M(2) energy = Exch (0.62194 SRHF + 1.0 LRHF + wB97M(2)_EXCH) + 
               Corr (wB97M(2)_CORR + 0.34096 MP2 + 0.65904 VV10(b=10))
 SCF time:  CPU 1255.72 s  wall 80.23 s
 SCF   energy in the final basis set = -920.23271093
 Total energy in the final basis set = -920.23271093
 
 Components of the MP2 correlation energy:
        aaaa  correlation energy =        -0.0588954948 au
        abab  correlation energy =        -0.3402580654 au
        bbbb  correlation energy =        -0.0588954948 au
        non-Brillouin singles    =        -0.0000000000 au

 Total  MP2   correlation energy =                    -0.45804905 au
        MP2         total energy =                  -920.69075998 au
 
 --------------------------------------------------------------
 
                    Orbital Energies (a.u.)
 --------------------------------------------------------------
 
 Alpha MOs
 -- Occupied --
*******-101.926  -9.698  -9.698  -7.405  -7.405  -7.393  -7.393
 -7.393  -7.393  -1.061  -0.889  -0.566  -0.518  -0.518  -0.405
 -0.405
 -- Virtual --
 -0.035   0.052   0.060   0.069   0.069   0.091   0.096   0.096
  0.183   0.190   0.190   0.231   0.231   0.273   0.286   0.286
  0.308   0.335   0.335   0.408   0.408   0.463   0.478   0.478
  0.486   0.491   0.491   0.505   0.518   0.518   0.591   0.591
  0.608   0.671   0.671   0.686   0.686   0.721   0.749   0.749
  0.825   0.825   0.944   0.964   0.964   0.996   0.996   1.036
  1.070   1.070   1.113   1.403   1.403   1.418   1.427   1.427
  1.428   1.492   1.492   1.498   1.498   1.545   1.545   1.605
  1.605   1.628   1.650   1.650   1.655   1.655   1.792   1.792
  1.796   1.796   1.799   1.799   1.834   1.834   1.908   1.908
  1.985   1.986   1.986   2.031   2.031   2.031   2.031   2.064
  2.114   2.114   2.276   2.306   2.306   2.333   2.434   2.434
  2.530   2.688   2.943   2.943   3.213   3.778   3.778   3.846
  3.846   3.864   3.864   3.906   3.991   3.991   4.184   4.236
  4.236   4.307   4.308   4.308   4.327   4.327   4.350   4.350
  4.356   4.356   4.364   4.364   4.366   4.366   4.419   4.419
  4.463   4.463   4.484   4.512   4.512   4.545   4.545   4.565
  4.565   4.690   4.744   4.744   5.052   5.052   5.386   5.386
  5.579   5.912   5.912   6.428   6.482   9.554  10.126  11.522
 11.522  11.560  11.560  11.581  11.581  11.718  11.796  11.796
 12.629  17.357  17.357  17.701  17.701  17.949  18.330  20.967
 20.967  20.974  20.974  20.992  20.992  20.994  21.013  21.013
 21.025  21.025  21.072  21.072  21.135  33.027  33.616  37.014
 37.014  37.044  37.044  37.055  37.055  37.168  37.203  37.203
 37.698  51.115  51.115  51.405  51.405  51.627  51.956  64.689
 64.691  64.691  64.694  64.694  64.695  64.695  64.696  64.696
 64.697  64.699  64.699  64.700  64.700  64.706  64.706  64.707
 64.707  75.119  75.119  75.123  75.123  75.132  75.133  75.133
 75.145  75.145  75.150  75.150  75.176  75.176  75.203  96.925
 97.654 109.968 109.970 109.993 109.993 109.998 110.000 110.085
110.106 110.106 110.430 165.165 165.165 165.336 165.336 165.482
165.663 453.949 457.094
 --------------------------------------------------------------
 
          Ground-State Mulliken Net Atomic Charges

     Atom                 Charge (a.u.)
  ----------------------------------------
      1 Cl                    0.000592
      2 Cl                   -0.000592
  ----------------------------------------
  Sum of atomic charges =    -0.000000

 -----------------------------------------------------------------
                    Cartesian Multipole Moments
 -----------------------------------------------------------------
    Charge (ESU x 10^10)
                -0.0000
    Dipole Moment (Debye)
         X       0.0000      Y       0.0000      Z      -0.0108
       Tot       0.0108
    Quadrupole Moments (Debye-Ang)
        XX     -25.5243     XY       0.0000     YY     -25.5243
        XZ       0.0000     YZ      -0.0000     ZZ     -22.4404
    Octopole Moments (Debye-Ang^2)
       XXX       0.0000    XXY       0.0000    XYY       0.0000
       YYY       0.0000    XXZ     -25.3777    XYZ       0.0000
       YYZ     -25.3777    XZZ       0.0000    YZZ       0.0000
       ZZZ     -66.9283
    Hexadecapole Moments (Debye-Ang^3)
      XXXX     -29.5429   XXXY       0.0000   XXYY      -9.8476
      XYYY       0.0000   YYYY     -29.5429   XXXZ       0.0000
      XXYZ      -0.0000   XYYZ       0.0000   YYYZ      -0.0000
      XXZZ     -60.3040   XYZZ       0.0000   YYZZ     -60.3040
      XZZZ       0.0000   YZZZ      -0.0000   ZZZZ    -285.6371
 -----------------------------------------------------------------
Archival summary:
1\1\n0088.mhg0\SP\ProcedureUnspecified\BasisUnspecified\l2\yhljason\FriNov613:04:052020FriNov613:04:052020\0\\#,ProcedureUnspecified,BasisUnspecified,\\0,1\Cl\Cl,1,1.9879\\\@

 Total job time:  516.48s(wall), 8128.09s(cpu) 
 Fri Nov  6 13:04:05 2020

        *************************************************************
        *                                                           *
        *  Thank you very much for using Q-Chem.  Have a nice day.  *
        *                                                           *
        *************************************************************


 
User input: 5 of 6 
 
Q-Chem Developer Version!
                  Welcome to Q-Chem
     A Quantum Leap Into The Future Of Chemistry


 Q-Chem 5.1, Q-Chem, Inc., Pleasanton, CA (2018)

 Yihan Shao,  Zhengting Gan,  E. Epifanovsky,  A. T. B. Gilbert,  M. Wormit,  
 J. Kussmann,  A. W. Lange,  A. Behn,  Jia Deng,  Xintian Feng,  D. Ghosh,  
 M. Goldey,  P. R. Horn,  L. D. Jacobson,  I. Kaliman,  T. Kus,  A. Landau,  
 Jie Liu,  E. I. Proynov,  R. M. Richard,  R. P. Steele,  E. J. Sundstrom,  
 H. L. Woodcock III,  P. M. Zimmerman,  D. Zuev,  B. Albrecht,  E. Alguire,  
 S. A. Baeppler,  D. Barton,  Z. Benda,  Y. A. Bernard,  E. J. Berquist,  
 K. B. Bravaya,  H. Burton,  D. Casanova,  Chun-Min Chang,  Yunqing Chen,  
 A. Chien,  K. D. Closser,  M. P. Coons,  S. Coriani,  S. Dasgupta,  
 A. L. Dempwolff,  M. Diedenhofen,  Hainam Do,  R. G. Edgar,  Po-Tung Fang,  
 S. Faraji,  S. Fatehi,  Qingguo Feng,  K. D. Fenk,  J. Fosso-Tande,  
 Qinghui Ge,  A. Ghysels,  G. Gidofalvi,  J. Gomes,  J. Gonthier,  A. Gunina,  
 D. Hait,  M. W. D. Hanson-Heine,  P. H. P. Harbach,  A. W. Hauser,  
 J. E. Herr,  E. G. Hohenstein,  Z. C. Holden,  Kerwin Hui,  B. C. Huynh,  
 T.-C. Jagau,  Hyunjun Ji,  B. Kaduk,  K. Khistyaev,  Jaehoon Kim,  
 P. Klunzinger,  K. Koh,  D. Kosenkov,  L. Koulias,  T. Kowalczyk,  
 C. M. Krauter,  A. Kunitsa,  Ka Un Lao,  A. Laurent,  K. V. Lawler,  
 Joonho Lee,  D. Lefrancois,  S. Lehtola,  D. S. Levine,  Yi-Pei Li,  
 You-Sheng Lin,  Fenglai Liu,  E. Livshits,  A. Luenser,  P. Manohar,  
 E. Mansoor,  S. F. Manzer,  Shan-Ping Mao,  Yuezhi Mao,  N. Mardirossian,  
 A. V. Marenich,  T. Markovich,  L. A. Martinez-Martinez,  S. A. Maurer,  
 N. J. Mayhall,  S. C. McKenzie,  J.-M. Mewes,  A. F. Morrison,  
 J. W. Mullinax,  K. Nanda,  T. S. Nguyen-Beck,  R. Olivares-Amaya,  
 J. A. Parkhill,  T. M. Perrine,  F. Plasser,  P. Pokhilko,  S. Prager,  
 A. Prociuk,  E. Ramos,  D. R. Rehn,  F. Rob,  M. Schneider,  N. Sergueev,  
 S. M. Sharada,  S. Sharma,  D. W. Small,  T. Stauch,  T. Stein,  
 Yu-Chuan Su,  A. J. W. Thom,  A. Tkatchenko,  T. Tsuchimochi,  N. M. Tubman,  
 L. Vogt,  M. L. Vidal,  O. Vydrov,  M. A. Watson,  J. Wenzel,  
 M. de Wergifosse,  T. A. Wesolowski,  A. White,  J. Witte,  A. Yamada,  
 Jun Yang,  K. Yao,  S. Yeganeh,  S. R. Yost,  Zhi-Qiang You,  A. Zech,  
 Igor Ying Zhang,  Xing Zhang,  Yan Zhao,  Ying Zhu,  B. R. Brooks,  
 G. K. L. Chan,  C. J. Cramer,  M. S. Gordon,  W. J. Hehre,  A. Klamt,  
 M. W. Schmidt,  C. D. Sherrill,  D. G. Truhlar,  A. Aspuru-Guzik,  R. Baer,  
 A. T. Bell,  N. A. Besley,  Jeng-Da Chai,  A. E. DePrince, III,  
 R. A. DiStasio Jr.,  A. Dreuw,  B. D. Dunietz,  T. R. Furlani,  
 Chao-Ping Hsu,  Yousung Jung,  Jing Kong,  D. S. Lambrecht,  WanZhen Liang,  
 C. Ochsenfeld,  V. A. Rassolov,  L. V. Slipchenko,  J. E. Subotnik,  
 T. Van Voorhis,  J. M. Herbert,  A. I. Krylov,  P. M. W. Gill,  M. Head-Gordon

 Contributors to earlier versions of Q-Chem not listed above: 
 R. D. Adamson,  B. Austin,  J. Baker,  G. J. O. Beran,  K. Brandhorst,  
 S. T. Brown,  E. F. C. Byrd,  A. K. Chakraborty,  C.-L. Cheng,  
 Siu Hung Chien,  D. M. Chipman,  D. L. Crittenden,  H. Dachsel,  
 R. J. Doerksen,  A. D. Dutoi,  L. Fusti-Molnar,  W. A. Goddard III,  
 A. Golubeva-Zadorozhnaya,  S. R. Gwaltney,  G. Hawkins,  A. Heyden,  
 S. Hirata,  G. Kedziora,  F. J. Keil,  C. Kelley,  Jihan Kim,  R. A. King,  
 R. Z. Khaliullin,  P. P. Korambath,  W. Kurlancheek,  A. M. Lee,  M. S. Lee,  
 S. V. Levchenko,  Ching Yeh Lin,  D. Liotard,  R. C. Lochan,  I. Lotan,  
 P. E. Maslen,  N. Nair,  D. P. O'Neill,  D. Neuhauser,  E. Neuscamman,  
 C. M. Oana,  R. Olson,  B. Peters,  R. Peverati,  P. A. Pieniazek,  
 Y. M. Rhee,  J. Ritchie,  M. A. Rohrdanz,  E. Rosta,  N. J. Russ,  
 H. F. Schaefer III,  N. E. Schultz,  N. Shenvi,  A. C. Simmonett,  A. Sodt,  
 D. Stuck,  K. S. Thanthiriwatte,  V. Vanovschi,  Tao Wang,  A. Warshel,  
 C. F. Williams,  Q. Wu,  X. Xu,  W. Zhang

 Please cite Q-Chem as follows:
 Y. Shao et al., Mol. Phys. 113, 184-215 (2015)
 DOI: 10.1080/00268976.2014.952696

 Q-Chem 5.1.1 for Intel X86 EM64T Linux

 Parts of Q-Chem use Armadillo 8.300.2 (Tropical Shenanigans).
 http://arma.sourceforge.net/

 Q-Chem begins on Fri Nov  6 13:04:05 2020  

Host: n0088.mhg0
0

     Scratch files written to /local/scratch/users/yhljason/Cl2_wB97M2_aug-cc-pcVQZ.inp20201106122519//
The previous job contains 0 fragments, simply inherited here
Input Ideriv = 2
Curr. Ideriv = -1
Max.  Ideriv = 2
Input Ideriv = 1
Curr. Ideriv = 2
Max.  Ideriv = 1

Checking the input file for inconsistencies... 	...done.

--------------------------------------------------------------
User input:
--------------------------------------------------------------
$molecule
read
$end

$rem

jobtype sp
method wb97m-v
xc_grid 000099000590
basis aug-cc-pcVQZ
max_scf_cycles 200
thresh 14
scf_convergence 8
mem_total 128000
cc_memory 96000
cc_backend xm
mem_static 1500
symmetry false
sym_ignore true
scf_guess read
unrestricted false
scf_algorithm gdm
n_frozen_core 0
gen_scfman true
$end

$multipole_field
Z -0.0001
$end



--------------------------------------------------------------
 ----------------------------------------------------------------
             Standard Nuclear Orientation (Angstroms)
    I     Atom           X                Y                Z
 ----------------------------------------------------------------
    1      Cl      0.0000000000     0.0000000000     0.0000000000
    2      Cl      0.0000000000     0.0000000000     1.9879000000
 ----------------------------------------------------------------
 Nuclear Repulsion Energy =    76.9315427945 hartrees
 There are       17 alpha and       17 beta electrons
 Requested basis set is aug-cc-pCVQZ
 There are 68 shells and 268 basis functions

 Total QAlloc Memory Limit 128000 MB
 Mega-Array Size      1467 MB
 MEM_STATIC part      1500 MB

                       Distance Matrix (Angstroms)
             Cl(  1)
   Cl(  2)  1.987900
 
 Applying Cartesian multipole field
    Component          Value
    ---------          -----
     (0,0,1)       -1.00000E-04
 Nucleus-field energy     =    -0.0063861972 hartrees
 A cutoff of  1.0D-14 yielded   2208 shell pairs
 There are     34276 function pairs (     57990 Cartesian)
 
 -------------------------------------------------------
 OpenMP Integral Computing Module                       
 Release: version 1.0, May 2013, Q-Chem Inc. Pittsburgh 
 -------------------------------------------------------
 Integral Job Info:
 Integral job number is                      11
 Integral operator is                         1
 short-range coefficients              15000000
 long-range coefficients              100000000
 Omega coefficients                         300
 if combine SR and LR in K                    1
 Integral screening is                        0
 Integral computing path is                   2
 max size of driver memory is           3200000
 size of driver memory is               1704330
 size of scratch memory is             28840424
 max col of scratch BK array              50625
 max len of scratch array in speh3         2114
 max len of scratch index in speh4           50
 max int batch size is                      520
 min int batch size is                       52
 fixed nKL is                                21
 max L of basis functions is                  4
 order of int derivative is                   0
 number of shells is                         68
 number of basis is                         348
 number of cartesian basis is               348
 number of contracted shell pairs          2208
 number of primitive shell pairs          10830
 maxK2 (contraction) of shell pair          169
 max number of K2 of shell pair               1
 max number of CS2 of shell pair            202
 max number of PS2 of shell pair           2028
 mem total for path MDJ                  752464
 -------------------------------------------------------
 Smallest overlap matrix eigenvalue = 2.44E-05
 Guess MOs from SCF MO coefficient file

 -----------------------------------------------------------------------
  General SCF calculation program by
  Eric Jon Sundstrom, Paul Horn, Yuezhi Mao, Dmitri Zuev, Alec White,
  David Stuck, Shaama M.S., Shane Yost, Joonho Lee, David Small,
  Daniel Levine, Susi Lehtola, Hugh Burton, Evgeny Epifanovsky
 -----------------------------------------------------------------------
 Exchange:     0.1500 Hartree-Fock + 1.0000 wB97M-V + LR-HF
 Correlation:  1.0000 wB97M-V
 Using Euler-Maclaurin-Lebedev (99,590) quadrature formula
 Nonlocal Correlation:  VV10 with C = 0.0100 and b = 6.00 and scale = 1.00000
 Grid used for NLC:  SG-1 standard quadrature
 using 16 threads for integral computing
 -------------------------------------------------------
 OpenMP Integral computing Module                
 Release: version 1.0, May 2013, Q-Chem Inc. Pittsburgh 
 -------------------------------------------------------
 using 16 threads for integral computing
 -------------------------------------------------------
 OpenMP Integral computing Module                
 Release: version 1.0, May 2013, Q-Chem Inc. Pittsburgh 
 -------------------------------------------------------
 -------------------------------------------------------
 OpenMP BLAS3 based DFT computing Module                
 Release: version 1.0, May 2013, Q-Chem Inc. Pittsburgh 
 -------------------------------------------------------
 -------------------------------------------------------
 OpenMP BLAS3 based DFT computing Module                
 Release: version 1.0, May 2013, Q-Chem Inc. Pittsburgh 
 -------------------------------------------------------
 -------------------------------------------------------
 OpenMP BLAS3 based DFT computing Module                
 Release: version 1.0, May 2013, Q-Chem Inc. Pittsburgh 
 -------------------------------------------------------
 Nonlocal correlation = 0.142305290181
 A restricted SCF calculation will be
 performed using GDM
 SCF converges when RMS gradient is below 1.0e-08
 ---------------------------------------
  Cycle       Energy        RMS Gradient
 ---------------------------------------
 Nonlocal correlation = 1.423052901840e-01
    1    -920.3746164889      7.27e-04   Normal BFGS step
 Nonlocal correlation = 1.423052901791e-01
    2    -920.3746171228      2.71e-04   Normal BFGS step
 Nonlocal correlation = 1.423052902145e-01
    3    -920.3746173293      3.83e-05   Normal BFGS step
 Nonlocal correlation = 1.423052901695e-01
    4    -920.3746173390      1.14e-05   Normal BFGS step
 Nonlocal correlation = 1.423052901844e-01
    5    -920.3746173401      2.16e-06   Normal BFGS step
 Nonlocal correlation = 1.423052901777e-01
    6    -920.3746173401      7.13e-07   Normal BFGS step
 Nonlocal correlation = 1.423052901837e-01
    7    -920.3746173402      7.49e-08   Normal BFGS step
 Nonlocal correlation = 1.423052901794e-01
    8    -920.3746173402      2.29e-08   Normal BFGS step
 Nonlocal correlation = 1.423052901827e-01
    9    -920.3746173402      2.83e-09  Convergence criterion met
 ---------------------------------------
 SCF time:   CPU 3532.14s  wall 223.00s 
 SCF   energy in the final basis set =     -920.3746173402
 Total energy in the final basis set =     -920.3746173402
 
 --------------------------------------------------------------
 
                    Orbital Energies (a.u.)
 --------------------------------------------------------------
 
 Alpha MOs
 -- Occupied --
*******-101.925  -9.698  -9.697  -7.405  -7.405  -7.393  -7.393
 -7.393  -7.393  -1.060  -0.889  -0.566  -0.517  -0.517  -0.404
 -0.404
 -- Virtual --
 -0.035   0.052   0.060   0.069   0.069   0.091   0.097   0.097
  0.183   0.190   0.190   0.232   0.232   0.273   0.286   0.286
  0.309   0.335   0.335   0.408   0.408   0.463   0.479   0.479
  0.486   0.492   0.492   0.505   0.518   0.518   0.591   0.591
  0.608   0.672   0.672   0.686   0.686   0.722   0.749   0.749
  0.825   0.825   0.944   0.964   0.964   0.996   0.996   1.036
  1.070   1.070   1.114   1.403   1.403   1.419   1.427   1.427
  1.428   1.492   1.492   1.498   1.498   1.545   1.545   1.605
  1.605   1.629   1.650   1.650   1.656   1.656   1.792   1.792
  1.797   1.797   1.800   1.800   1.835   1.835   1.909   1.909
  1.985   1.986   1.986   2.031   2.031   2.031   2.031   2.064
  2.114   2.114   2.277   2.306   2.306   2.333   2.435   2.435
  2.530   2.688   2.943   2.943   3.213   3.778   3.778   3.846
  3.846   3.864   3.864   3.907   3.991   3.991   4.185   4.236
  4.236   4.307   4.309   4.309   4.327   4.327   4.350   4.350
  4.356   4.356   4.364   4.364   4.366   4.366   4.419   4.419
  4.464   4.464   4.484   4.512   4.512   4.545   4.545   4.565
  4.565   4.691   4.744   4.744   5.052   5.052   5.386   5.386
  5.579   5.913   5.913   6.429   6.482   9.554  10.126  11.523
 11.523  11.560  11.560  11.582  11.582  11.718  11.796  11.796
 12.629  17.357  17.357  17.701  17.701  17.949  18.331  20.968
 20.968  20.975  20.975  20.993  20.993  20.994  21.014  21.014
 21.026  21.026  21.072  21.072  21.136  33.028  33.617  37.015
 37.015  37.044  37.044  37.056  37.056  37.169  37.204  37.204
 37.698  51.116  51.116  51.405  51.405  51.627  51.956  64.689
 64.691  64.691  64.695  64.695  64.695  64.695  64.697  64.697
 64.698  64.699  64.699  64.700  64.700  64.707  64.707  64.707
 64.707  75.119  75.119  75.123  75.123  75.132  75.133  75.133
 75.145  75.145  75.150  75.150  75.177  75.177  75.203  96.925
 97.655 109.969 109.971 109.993 109.993 109.998 110.000 110.085
110.107 110.107 110.431 165.166 165.166 165.337 165.337 165.482
165.664 453.949 457.094
 --------------------------------------------------------------
 
          Ground-State Mulliken Net Atomic Charges

     Atom                 Charge (a.u.)
  ----------------------------------------
      1 Cl                   -0.000592
      2 Cl                    0.000592
  ----------------------------------------
  Sum of atomic charges =    -0.000000

 -----------------------------------------------------------------
                    Cartesian Multipole Moments
 -----------------------------------------------------------------
    Charge (ESU x 10^10)
                -0.0000
    Dipole Moment (Debye)
         X      -0.0000      Y       0.0000      Z       0.0108
       Tot       0.0108
    Quadrupole Moments (Debye-Ang)
        XX     -25.5243     XY       0.0000     YY     -25.5243
        XZ      -0.0000     YZ      -0.0000     ZZ     -22.3974
    Octopole Moments (Debye-Ang^2)
       XXX      -0.0000    XXY       0.0000    XYY      -0.0000
       YYY       0.0000    XXZ     -25.3620    XYZ       0.0000
       YYZ     -25.3620    XZZ      -0.0000    YZZ       0.0000
       ZZZ     -66.7710
    Hexadecapole Moments (Debye-Ang^3)
      XXXX     -29.5429   XXXY       0.0000   XXYY      -9.8476
      XYYY       0.0000   YYYY     -29.5429   XXXZ      -0.0000
      XXYZ      -0.0000   XYYZ      -0.0000   YYYZ      -0.0000
      XXZZ     -60.2727   XYZZ       0.0000   YYZZ     -60.2727
      XZZZ      -0.0000   YZZZ      -0.0000   ZZZZ    -285.1817
 -----------------------------------------------------------------
Archival summary:
1\1\n0088.mhg0\SP\ProcedureUnspecified\BasisUnspecified\l2\yhljason\FriNov613:07:502020FriNov613:07:502020\0\\#,ProcedureUnspecified,BasisUnspecified,\\0,1\Cl\Cl,1,1.9879\\\@

 Total job time:  224.91s(wall), 3547.97s(cpu) 
 Fri Nov  6 13:07:50 2020

        *************************************************************
        *                                                           *
        *  Thank you very much for using Q-Chem.  Have a nice day.  *
        *                                                           *
        *************************************************************


 
User input: 6 of 6 
 
Q-Chem Developer Version!
                  Welcome to Q-Chem
     A Quantum Leap Into The Future Of Chemistry


 Q-Chem 5.1, Q-Chem, Inc., Pleasanton, CA (2018)

 Yihan Shao,  Zhengting Gan,  E. Epifanovsky,  A. T. B. Gilbert,  M. Wormit,  
 J. Kussmann,  A. W. Lange,  A. Behn,  Jia Deng,  Xintian Feng,  D. Ghosh,  
 M. Goldey,  P. R. Horn,  L. D. Jacobson,  I. Kaliman,  T. Kus,  A. Landau,  
 Jie Liu,  E. I. Proynov,  R. M. Richard,  R. P. Steele,  E. J. Sundstrom,  
 H. L. Woodcock III,  P. M. Zimmerman,  D. Zuev,  B. Albrecht,  E. Alguire,  
 S. A. Baeppler,  D. Barton,  Z. Benda,  Y. A. Bernard,  E. J. Berquist,  
 K. B. Bravaya,  H. Burton,  D. Casanova,  Chun-Min Chang,  Yunqing Chen,  
 A. Chien,  K. D. Closser,  M. P. Coons,  S. Coriani,  S. Dasgupta,  
 A. L. Dempwolff,  M. Diedenhofen,  Hainam Do,  R. G. Edgar,  Po-Tung Fang,  
 S. Faraji,  S. Fatehi,  Qingguo Feng,  K. D. Fenk,  J. Fosso-Tande,  
 Qinghui Ge,  A. Ghysels,  G. Gidofalvi,  J. Gomes,  J. Gonthier,  A. Gunina,  
 D. Hait,  M. W. D. Hanson-Heine,  P. H. P. Harbach,  A. W. Hauser,  
 J. E. Herr,  E. G. Hohenstein,  Z. C. Holden,  Kerwin Hui,  B. C. Huynh,  
 T.-C. Jagau,  Hyunjun Ji,  B. Kaduk,  K. Khistyaev,  Jaehoon Kim,  
 P. Klunzinger,  K. Koh,  D. Kosenkov,  L. Koulias,  T. Kowalczyk,  
 C. M. Krauter,  A. Kunitsa,  Ka Un Lao,  A. Laurent,  K. V. Lawler,  
 Joonho Lee,  D. Lefrancois,  S. Lehtola,  D. S. Levine,  Yi-Pei Li,  
 You-Sheng Lin,  Fenglai Liu,  E. Livshits,  A. Luenser,  P. Manohar,  
 E. Mansoor,  S. F. Manzer,  Shan-Ping Mao,  Yuezhi Mao,  N. Mardirossian,  
 A. V. Marenich,  T. Markovich,  L. A. Martinez-Martinez,  S. A. Maurer,  
 N. J. Mayhall,  S. C. McKenzie,  J.-M. Mewes,  A. F. Morrison,  
 J. W. Mullinax,  K. Nanda,  T. S. Nguyen-Beck,  R. Olivares-Amaya,  
 J. A. Parkhill,  T. M. Perrine,  F. Plasser,  P. Pokhilko,  S. Prager,  
 A. Prociuk,  E. Ramos,  D. R. Rehn,  F. Rob,  M. Schneider,  N. Sergueev,  
 S. M. Sharada,  S. Sharma,  D. W. Small,  T. Stauch,  T. Stein,  
 Yu-Chuan Su,  A. J. W. Thom,  A. Tkatchenko,  T. Tsuchimochi,  N. M. Tubman,  
 L. Vogt,  M. L. Vidal,  O. Vydrov,  M. A. Watson,  J. Wenzel,  
 M. de Wergifosse,  T. A. Wesolowski,  A. White,  J. Witte,  A. Yamada,  
 Jun Yang,  K. Yao,  S. Yeganeh,  S. R. Yost,  Zhi-Qiang You,  A. Zech,  
 Igor Ying Zhang,  Xing Zhang,  Yan Zhao,  Ying Zhu,  B. R. Brooks,  
 G. K. L. Chan,  C. J. Cramer,  M. S. Gordon,  W. J. Hehre,  A. Klamt,  
 M. W. Schmidt,  C. D. Sherrill,  D. G. Truhlar,  A. Aspuru-Guzik,  R. Baer,  
 A. T. Bell,  N. A. Besley,  Jeng-Da Chai,  A. E. DePrince, III,  
 R. A. DiStasio Jr.,  A. Dreuw,  B. D. Dunietz,  T. R. Furlani,  
 Chao-Ping Hsu,  Yousung Jung,  Jing Kong,  D. S. Lambrecht,  WanZhen Liang,  
 C. Ochsenfeld,  V. A. Rassolov,  L. V. Slipchenko,  J. E. Subotnik,  
 T. Van Voorhis,  J. M. Herbert,  A. I. Krylov,  P. M. W. Gill,  M. Head-Gordon

 Contributors to earlier versions of Q-Chem not listed above: 
 R. D. Adamson,  B. Austin,  J. Baker,  G. J. O. Beran,  K. Brandhorst,  
 S. T. Brown,  E. F. C. Byrd,  A. K. Chakraborty,  C.-L. Cheng,  
 Siu Hung Chien,  D. M. Chipman,  D. L. Crittenden,  H. Dachsel,  
 R. J. Doerksen,  A. D. Dutoi,  L. Fusti-Molnar,  W. A. Goddard III,  
 A. Golubeva-Zadorozhnaya,  S. R. Gwaltney,  G. Hawkins,  A. Heyden,  
 S. Hirata,  G. Kedziora,  F. J. Keil,  C. Kelley,  Jihan Kim,  R. A. King,  
 R. Z. Khaliullin,  P. P. Korambath,  W. Kurlancheek,  A. M. Lee,  M. S. Lee,  
 S. V. Levchenko,  Ching Yeh Lin,  D. Liotard,  R. C. Lochan,  I. Lotan,  
 P. E. Maslen,  N. Nair,  D. P. O'Neill,  D. Neuhauser,  E. Neuscamman,  
 C. M. Oana,  R. Olson,  B. Peters,  R. Peverati,  P. A. Pieniazek,  
 Y. M. Rhee,  J. Ritchie,  M. A. Rohrdanz,  E. Rosta,  N. J. Russ,  
 H. F. Schaefer III,  N. E. Schultz,  N. Shenvi,  A. C. Simmonett,  A. Sodt,  
 D. Stuck,  K. S. Thanthiriwatte,  V. Vanovschi,  Tao Wang,  A. Warshel,  
 C. F. Williams,  Q. Wu,  X. Xu,  W. Zhang

 Please cite Q-Chem as follows:
 Y. Shao et al., Mol. Phys. 113, 184-215 (2015)
 DOI: 10.1080/00268976.2014.952696

 Q-Chem 5.1.1 for Intel X86 EM64T Linux

 Parts of Q-Chem use Armadillo 8.300.2 (Tropical Shenanigans).
 http://arma.sourceforge.net/

 Q-Chem begins on Fri Nov  6 13:07:50 2020  

Host: n0088.mhg0
0

     Scratch files written to /local/scratch/users/yhljason/Cl2_wB97M2_aug-cc-pcVQZ.inp20201106122519//
The previous job contains 0 fragments, simply inherited here
Input Ideriv = 0
Curr. Ideriv = -1
Max.  Ideriv = 0
Analytic post-HF gradients are not available with non-HF exchange
Input Ideriv = 0
Curr. Ideriv = 0
Max.  Ideriv = 0

Checking the input file for inconsistencies... 	...done.

--------------------------------------------------------------
User input:
--------------------------------------------------------------
$molecule
read
$end

$rem

jobtype sp
exchange wb97m(2)
xc_grid 000099000590
basis aug-cc-pcVQZ
max_scf_cycles 200
thresh 14
scf_convergence 8
mem_total 128000
cc_memory 96000
cc_backend xm
mem_static 1500
symmetry false
sym_ignore true
scf_guess read
unrestricted false
scf_algorithm gdm
n_frozen_core 0
$end

$multipole_field
Z -0.0001
$end


--------------------------------------------------------------
 ----------------------------------------------------------------
             Standard Nuclear Orientation (Angstroms)
    I     Atom           X                Y                Z
 ----------------------------------------------------------------
    1      Cl      0.0000000000     0.0000000000     0.0000000000
    2      Cl      0.0000000000     0.0000000000     1.9879000000
 ----------------------------------------------------------------
 Nuclear Repulsion Energy =    76.9315427945 hartrees
 There are       17 alpha and       17 beta electrons
 Requested basis set is aug-cc-pCVQZ
 There are 68 shells and 268 basis functions

 Total QAlloc Memory Limit 128000 MB
 Mega-Array Size      1467 MB
 MEM_STATIC part      1500 MB

                       Distance Matrix (Angstroms)
             Cl(  1)
   Cl(  2)  1.987900
 
 Applying Cartesian multipole field
    Component          Value
    ---------          -----
     (0,0,1)       -1.00000E-04
 Nucleus-field energy     =    -0.0063861972 hartrees
 A cutoff of  1.0D-14 yielded   2208 shell pairs
 There are     34276 function pairs (     57990 Cartesian)
 
 -------------------------------------------------------
 OpenMP Integral Computing Module                       
 Release: version 1.0, May 2013, Q-Chem Inc. Pittsburgh 
 -------------------------------------------------------
 Integral Job Info:
 Integral job number is                      11
 Integral operator is                         1
 short-range coefficients              15000000
 long-range coefficients              100000000
 Omega coefficients                         300
 if combine SR and LR in K                    1
 Integral screening is                        0
 Integral computing path is                   2
 max size of driver memory is           3200000
 size of driver memory is               1704330
 size of scratch memory is             28840424
 max col of scratch BK array              50625
 max len of scratch array in speh3         2114
 max len of scratch index in speh4           50
 max int batch size is                      520
 min int batch size is                       52
 fixed nKL is                                21
 max L of basis functions is                  4
 order of int derivative is                   0
 number of shells is                         68
 number of basis is                         348
 number of cartesian basis is               348
 number of contracted shell pairs          2208
 number of primitive shell pairs          10830
 maxK2 (contraction) of shell pair          169
 max number of K2 of shell pair               1
 max number of CS2 of shell pair            202
 max number of PS2 of shell pair           2028
 mem total for path MDJ                  752464
 -------------------------------------------------------
 Smallest overlap matrix eigenvalue = 2.44E-05
 Guess MOs from SCF MO coefficient file
 Reading MOs from coefficient file
 Reading MOs from coefficient file
 Long-range K will be added via erf
 Coulomb attenuation parameter = 0.3 bohr**(-1)
 A restricted hybrid HF-DFT SCF calculation will be
 performed using Geometric Direct Minimization
 Exchange:     0.1500 Hartree-Fock + 1.0000 wB97M-V + LR-HF
 Correlation:  1.0000 wB97M-V
 Using Euler-Maclaurin-Lebedev (99,590) quadrature formula
 Nonlocal Correlation:  VV10 with C = 0.0100 and b = 6.00 and scale = 1.00000
 Grid used for NLC:  SG-1 standard quadrature
 SCF converges when RMS gradient is below 1.0E-08
Using Q-Chem read-in guess as SCF_GUESS READ specified.

 using 16 threads for integral computing
 -------------------------------------------------------
 OpenMP Integral computing Module                
 Release: version 1.0, May 2013, Q-Chem Inc. Pittsburgh 
 -------------------------------------------------------
 using 16 threads for integral computing
 -------------------------------------------------------
 OpenMP Integral computing Module                
 Release: version 1.0, May 2013, Q-Chem Inc. Pittsburgh 
 -------------------------------------------------------
TIMEINFO->: J/JK contribution 331.21 sec.
 -------------------------------------------------------
 OpenMP BLAS3 based DFT computing Module                
 Release: version 1.0, May 2013, Q-Chem Inc. Pittsburgh 
 -------------------------------------------------------
 -------------------------------------------------------
 OpenMP BLAS3 based DFT computing Module                
 Release: version 1.0, May 2013, Q-Chem Inc. Pittsburgh 
 -------------------------------------------------------
 -------------------------------------------------------
 OpenMP BLAS3 based DFT computing Module                
 Release: version 1.0, May 2013, Q-Chem Inc. Pittsburgh 
 -------------------------------------------------------
 ---------------------------------------
  Cycle       Energy        RMS Gradient
 ---------------------------------------
    1    -920.3746173402      1.41E-09 Normal BFGS step
TIMEINFO->: J/JK contribution 334.16 sec.
   GDM::WARNING energy changes are now smaller than effective accuracy.
   GDM::        calculation will continue, but THRESH should be increased
   GDM::        or SCF_CONVERGENCE decreased.
   GDM::        effective_thresh =   1.700000000000000E-010
 Nonlocal correlation =     0.0458203824
    2    -920.3746173402      1.04E-09 Convergence criterion met
 ---------------------------------------
 wB97M-V orbitals are now ready for the wB97M(2) calculation.
 wB97M(2) energy = Exch (0.62194 SRHF + 1.0 LRHF + wB97M(2)_EXCH) + 
               Corr (wB97M(2)_CORR + 0.34096 MP2 + 0.65904 VV10(b=10))
 SCF time:  CPU 1263.45 s  wall 79.93 s
 SCF   energy in the final basis set = -920.23271093
 Total energy in the final basis set = -920.23271093
 
 Components of the MP2 correlation energy:
        aaaa  correlation energy =        -0.0588954948 au
        abab  correlation energy =        -0.3402580653 au
        bbbb  correlation energy =        -0.0588954948 au
        non-Brillouin singles    =        -0.0000000000 au

 Total  MP2   correlation energy =                    -0.45804905 au
        MP2         total energy =                  -920.69075998 au
 
 --------------------------------------------------------------
 
                    Orbital Energies (a.u.)
 --------------------------------------------------------------
 
 Alpha MOs
 -- Occupied --
*******-101.925  -9.698  -9.697  -7.405  -7.405  -7.393  -7.393
 -7.393  -7.393  -1.060  -0.889  -0.566  -0.517  -0.517  -0.404
 -0.404
 -- Virtual --
 -0.035   0.052   0.060   0.069   0.069   0.091   0.097   0.097
  0.183   0.190   0.190   0.232   0.232   0.273   0.286   0.286
  0.309   0.335   0.335   0.408   0.408   0.463   0.479   0.479
  0.486   0.492   0.492   0.505   0.518   0.518   0.591   0.591
  0.608   0.672   0.672   0.686   0.686   0.722   0.749   0.749
  0.825   0.825   0.944   0.964   0.964   0.996   0.996   1.036
  1.070   1.070   1.114   1.403   1.403   1.419   1.427   1.427
  1.428   1.492   1.492   1.498   1.498   1.545   1.545   1.605
  1.605   1.629   1.650   1.650   1.656   1.656   1.792   1.792
  1.797   1.797   1.800   1.800   1.835   1.835   1.909   1.909
  1.985   1.986   1.986   2.031   2.031   2.031   2.031   2.064
  2.114   2.114   2.277   2.306   2.306   2.333   2.435   2.435
  2.530   2.688   2.943   2.943   3.213   3.778   3.778   3.846
  3.846   3.864   3.864   3.907   3.991   3.991   4.185   4.236
  4.236   4.307   4.309   4.309   4.327   4.327   4.350   4.350
  4.356   4.356   4.364   4.364   4.366   4.366   4.419   4.419
  4.464   4.464   4.484   4.512   4.512   4.545   4.545   4.565
  4.565   4.691   4.744   4.744   5.052   5.052   5.386   5.386
  5.579   5.913   5.913   6.429   6.482   9.554  10.126  11.523
 11.523  11.560  11.560  11.582  11.582  11.718  11.796  11.796
 12.629  17.357  17.357  17.701  17.701  17.949  18.331  20.968
 20.968  20.975  20.975  20.993  20.993  20.994  21.014  21.014
 21.026  21.026  21.072  21.072  21.136  33.028  33.617  37.015
 37.015  37.044  37.044  37.056  37.056  37.169  37.204  37.204
 37.698  51.116  51.116  51.405  51.405  51.627  51.956  64.689
 64.691  64.691  64.695  64.695  64.695  64.695  64.697  64.697
 64.698  64.699  64.699  64.700  64.700  64.707  64.707  64.707
 64.707  75.119  75.119  75.123  75.123  75.132  75.133  75.133
 75.145  75.145  75.150  75.150  75.177  75.177  75.203  96.925
 97.655 109.969 109.971 109.993 109.993 109.998 110.000 110.085
110.107 110.107 110.431 165.166 165.166 165.337 165.337 165.482
165.664 453.949 457.094
 --------------------------------------------------------------
 
          Ground-State Mulliken Net Atomic Charges

     Atom                 Charge (a.u.)
  ----------------------------------------
      1 Cl                   -0.000592
      2 Cl                    0.000592
  ----------------------------------------
  Sum of atomic charges =    -0.000000

 -----------------------------------------------------------------
                    Cartesian Multipole Moments
 -----------------------------------------------------------------
    Charge (ESU x 10^10)
                -0.0000
    Dipole Moment (Debye)
         X       0.0000      Y       0.0000      Z       0.0108
       Tot       0.0108
    Quadrupole Moments (Debye-Ang)
        XX     -25.5243     XY      -0.0000     YY     -25.5243
        XZ      -0.0000     YZ       0.0000     ZZ     -22.3974
    Octopole Moments (Debye-Ang^2)
       XXX       0.0000    XXY       0.0000    XYY       0.0000
       YYY       0.0000    XXZ     -25.3620    XYZ      -0.0000
       YYZ     -25.3620    XZZ      -0.0000    YZZ       0.0000
       ZZZ     -66.7710
    Hexadecapole Moments (Debye-Ang^3)
      XXXX     -29.5429   XXXY      -0.0000   XXYY      -9.8476
      XYYY      -0.0000   YYYY     -29.5429   XXXZ      -0.0000
      XXYZ       0.0000   XYYZ      -0.0000   YYYZ       0.0000
      XXZZ     -60.2727   XYZZ      -0.0000   YYZZ     -60.2727
      XZZZ      -0.0000   YZZZ       0.0000   ZZZZ    -285.1817
 -----------------------------------------------------------------
Archival summary:
1\1\n0088.mhg0\SP\ProcedureUnspecified\BasisUnspecified\l2\yhljason\FriNov613:16:212020FriNov613:16:212020\0\\#,ProcedureUnspecified,BasisUnspecified,\\0,1\Cl\Cl,1,1.9879\\\@

 Total job time:  511.53s(wall), 8071.60s(cpu) 
 Fri Nov  6 13:16:21 2020

        *************************************************************
        *                                                           *
        *  Thank you very much for using Q-Chem.  Have a nice day.  *
        *                                                           *
        *************************************************************


