Q-Chem Developer Version!
                  Welcome to Q-Chem
     A Quantum Leap Into The Future Of Chemistry


 Q-Chem 5.1, Q-Chem, Inc., Pleasanton, CA (2018)

 Yihan Shao,  Zhengting Gan,  E. Epifanovsky,  A. T. B. Gilbert,  M. Wormit,  
 J. Kussmann,  A. W. Lange,  A. Behn,  Jia Deng,  Xintian Feng,  D. Ghosh,  
 M. Goldey,  P. R. Horn,  L. D. Jacobson,  I. Kaliman,  T. Kus,  A. Landau,  
 Jie Liu,  E. I. Proynov,  R. M. Richard,  R. P. Steele,  E. J. Sundstrom,  
 H. L. Woodcock III,  P. M. Zimmerman,  D. Zuev,  B. Albrecht,  E. Alguire,  
 S. A. Baeppler,  D. Barton,  Z. Benda,  Y. A. Bernard,  E. J. Berquist,  
 K. B. Bravaya,  H. Burton,  D. Casanova,  Chun-Min Chang,  Yunqing Chen,  
 A. Chien,  K. D. Closser,  M. P. Coons,  S. Coriani,  S. Dasgupta,  
 A. L. Dempwolff,  M. Diedenhofen,  Hainam Do,  R. G. Edgar,  Po-Tung Fang,  
 S. Faraji,  S. Fatehi,  Qingguo Feng,  K. D. Fenk,  J. Fosso-Tande,  
 Qinghui Ge,  A. Ghysels,  G. Gidofalvi,  J. Gomes,  J. Gonthier,  A. Gunina,  
 D. Hait,  M. W. D. Hanson-Heine,  P. H. P. Harbach,  A. W. Hauser,  
 J. E. Herr,  E. G. Hohenstein,  Z. C. Holden,  Kerwin Hui,  B. C. Huynh,  
 T.-C. Jagau,  Hyunjun Ji,  B. Kaduk,  K. Khistyaev,  Jaehoon Kim,  
 P. Klunzinger,  K. Koh,  D. Kosenkov,  L. Koulias,  T. Kowalczyk,  
 C. M. Krauter,  A. Kunitsa,  Ka Un Lao,  A. Laurent,  K. V. Lawler,  
 Joonho Lee,  D. Lefrancois,  S. Lehtola,  D. S. Levine,  Yi-Pei Li,  
 You-Sheng Lin,  Fenglai Liu,  E. Livshits,  A. Luenser,  P. Manohar,  
 E. Mansoor,  S. F. Manzer,  Shan-Ping Mao,  Yuezhi Mao,  N. Mardirossian,  
 A. V. Marenich,  T. Markovich,  L. A. Martinez-Martinez,  S. A. Maurer,  
 N. J. Mayhall,  S. C. McKenzie,  J.-M. Mewes,  A. F. Morrison,  
 J. W. Mullinax,  K. Nanda,  T. S. Nguyen-Beck,  R. Olivares-Amaya,  
 J. A. Parkhill,  T. M. Perrine,  F. Plasser,  P. Pokhilko,  S. Prager,  
 A. Prociuk,  E. Ramos,  D. R. Rehn,  F. Rob,  M. Schneider,  N. Sergueev,  
 S. M. Sharada,  S. Sharma,  D. W. Small,  T. Stauch,  T. Stein,  
 Yu-Chuan Su,  A. J. W. Thom,  A. Tkatchenko,  T. Tsuchimochi,  N. M. Tubman,  
 L. Vogt,  M. L. Vidal,  O. Vydrov,  M. A. Watson,  J. Wenzel,  
 M. de Wergifosse,  T. A. Wesolowski,  A. White,  J. Witte,  A. Yamada,  
 Jun Yang,  K. Yao,  S. Yeganeh,  S. R. Yost,  Zhi-Qiang You,  A. Zech,  
 Igor Ying Zhang,  Xing Zhang,  Yan Zhao,  Ying Zhu,  B. R. Brooks,  
 G. K. L. Chan,  C. J. Cramer,  M. S. Gordon,  W. J. Hehre,  A. Klamt,  
 M. W. Schmidt,  C. D. Sherrill,  D. G. Truhlar,  A. Aspuru-Guzik,  R. Baer,  
 A. T. Bell,  N. A. Besley,  Jeng-Da Chai,  A. E. DePrince, III,  
 R. A. DiStasio Jr.,  A. Dreuw,  B. D. Dunietz,  T. R. Furlani,  
 Chao-Ping Hsu,  Yousung Jung,  Jing Kong,  D. S. Lambrecht,  WanZhen Liang,  
 C. Ochsenfeld,  V. A. Rassolov,  L. V. Slipchenko,  J. E. Subotnik,  
 T. Van Voorhis,  J. M. Herbert,  A. I. Krylov,  P. M. W. Gill,  M. Head-Gordon

 Contributors to earlier versions of Q-Chem not listed above: 
 R. D. Adamson,  B. Austin,  J. Baker,  G. J. O. Beran,  K. Brandhorst,  
 S. T. Brown,  E. F. C. Byrd,  A. K. Chakraborty,  C.-L. Cheng,  
 Siu Hung Chien,  D. M. Chipman,  D. L. Crittenden,  H. Dachsel,  
 R. J. Doerksen,  A. D. Dutoi,  L. Fusti-Molnar,  W. A. Goddard III,  
 A. Golubeva-Zadorozhnaya,  S. R. Gwaltney,  G. Hawkins,  A. Heyden,  
 S. Hirata,  G. Kedziora,  F. J. Keil,  C. Kelley,  Jihan Kim,  R. A. King,  
 R. Z. Khaliullin,  P. P. Korambath,  W. Kurlancheek,  A. M. Lee,  M. S. Lee,  
 S. V. Levchenko,  Ching Yeh Lin,  D. Liotard,  R. C. Lochan,  I. Lotan,  
 P. E. Maslen,  N. Nair,  D. P. O'Neill,  D. Neuhauser,  E. Neuscamman,  
 C. M. Oana,  R. Olson,  B. Peters,  R. Peverati,  P. A. Pieniazek,  
 Y. M. Rhee,  J. Ritchie,  M. A. Rohrdanz,  E. Rosta,  N. J. Russ,  
 H. F. Schaefer III,  N. E. Schultz,  N. Shenvi,  A. C. Simmonett,  A. Sodt,  
 D. Stuck,  K. S. Thanthiriwatte,  V. Vanovschi,  Tao Wang,  A. Warshel,  
 C. F. Williams,  Q. Wu,  X. Xu,  W. Zhang

 Please cite Q-Chem as follows:
 Y. Shao et al., Mol. Phys. 113, 184-215 (2015)
 DOI: 10.1080/00268976.2014.952696

 Q-Chem 5.1.1 for Intel X86 EM64T Linux

 Parts of Q-Chem use Armadillo 8.300.2 (Tropical Shenanigans).
 http://arma.sourceforge.net/

 Q-Chem begins on Fri Nov  6 12:39:45 2020  

Host: n0089.mhg0
0

     Scratch files written to /local/scratch/users/yhljason/LiH_wB97M2_aug-cc-pcV5Z.inp20201106123942//
Input Ideriv = 2
Curr. Ideriv = -1
Max.  Ideriv = 2
Input Ideriv = 1
Curr. Ideriv = 2
Max.  Ideriv = 1

Checking the input file for inconsistencies... 	...done.

--------------------------------------------------------------
User input:
--------------------------------------------------------------
$molecule
0 1
Li       0.0000  0.0000  0.0000
H       0.0000  0.0000  1.5949
$end

$rem
jobtype sp
method wB97M-V
xc_grid 000099000590
basis gen
max_scf_cycles 200
thresh 14
scf_convergence 8
scf_algorithm gdm
symmetry false
sym_ignore true
unrestricted false
gen_scfman true
mem_total 128000
n_frozen_core 500
$end

$basis
****
H
aug-cc-pcV5Z
****
Li     0
S   14   1.00
  29493.0000000              1.8000000e-05
   4417.1010000              1.4100000e-04
   1005.2230000              7.3900000e-04
    284.7009000              3.1070000e-03
     92.8654300              1.1135000e-02
     33.5117900              3.4670000e-02
     13.0418000              9.2171000e-02
      5.3575360              1.9957600e-01
      2.2793380              3.2883600e-01
      0.9939900              3.4597500e-01
      0.4334710              1.4276100e-01
      0.0955660              5.3190000e-03
      0.0446570             -2.1010000e-03
      0.0206330              8.1500000e-04
S   14   1.00
  29493.0000000             -3.0000000e-06
   4417.1010000             -2.2000000e-05
   1005.2230000             -1.1500000e-04
    284.7009000             -4.8700000e-04
     92.8654300             -1.7460000e-03
     33.5117900             -5.5200000e-03
     13.0418000             -1.4928000e-02
      5.3575360             -3.4206000e-02
      2.2793380             -6.2155000e-02
      0.9939900             -9.5902000e-02
      0.4334710             -1.0397200e-01
      0.0955660              3.0715100e-01
      0.0446570              5.7902800e-01
      0.0206330              2.2323100e-01
S   1   1.00
      0.4334710              1.0000000e+00
S   1   1.00
      0.0955660              1.0000000e+00
S   1   1.00
      0.0446570              1.0000000e+00
S   1   1.00
      0.0206330              1.0000000e+00
P   8   1.00
     19.6635000              5.4000000e-04
      4.6231100              3.8650000e-03
      1.4137800              1.5171000e-02
      0.4737210              4.9204000e-02
      0.1761510              1.5466100e-01
      0.0726750              3.6009500e-01
      0.0321410              4.4185200e-01
      0.0145560              1.5600000e-01
P   1   1.00
      0.1761510              1.0000000e+00
P   1   1.00
      0.0726750              1.0000000e+00
P   1   1.00
      0.0321410              1.0000000e+00
P   1   1.00
      0.0145560              1.0000000e+00
D   1   1.00
      0.5310000              1.0000000e+00
D   1   1.00
      0.2481000              1.0000000e+00
D   1   1.00
      0.1159000              1.0000000e+00
D   1   1.00
      0.0542000              1.0000000e+00
F   1   1.00
      0.2920000              1.0000000e+00
F   1   1.00
      0.1641000              1.0000000e+00
F   1   1.00
      0.0922000              1.0000000e+00
G   1   1.00
      0.2971000              1.0000000e+00
G   1   1.00
      0.1500000              1.0000000e+00
H   1   1.00
      0.2949000              1.0000000e+00
S   1   1.00
     27.8558000              1.0000000
S   1   1.00
     12.5082000              1.0000000
S   1   1.00
      5.6166000              1.0000000
S   1   1.00
      2.5221000              1.0000000
P   1   1.00
     29.2095000              1.0000000
P   1   1.00
     11.1763000              1.0000000
P   1   1.00
      4.2763000              1.0000000
P   1   1.00
      1.6362000              1.0000000
D   1   1.00
     19.8455000              1.0000000
D   1   1.00
      7.1492000              1.0000000
D   1   1.00
      2.5754000              1.0000000
F   1   1.00
     13.2502000              1.0000000
F   1   1.00
      4.1991000              1.0000000
G   1   1.00
      8.4093000              1.0000000
S   1   1.00
      0.0061000              1.0000000
P   1   1.00
      0.0065000              1.0000000
D   1   1.00
      0.0235000              1.0000000
F   1   1.00
      0.0448000              1.0000000
G   1   1.00
      0.0724000              1.0000000
H   1   1.00
      0.1274000              1.0000000
****
$end

--------------------------------------------------------------
 ----------------------------------------------------------------
             Standard Nuclear Orientation (Angstroms)
    I     Atom           X                Y                Z
 ----------------------------------------------------------------
    1      Li      0.0000000000     0.0000000000     0.0000000000
    2      H       0.0000000000     0.0000000000     1.5949000000
 ----------------------------------------------------------------
 Nuclear Repulsion Energy =     0.9953800441 hartrees
 There are        2 alpha and        2 beta electrons

 Q-Chem warning in module forms1/BasisType.C, line 1703:

 Setting pure/cartesian flag to 2111 for general basis


 Requested basis set is non-standard
 There are 61 shells and 281 basis functions

 Total QAlloc Memory Limit 128000 MB
 Mega-Array Size       188 MB
 MEM_STATIC part       192 MB

                       Distance Matrix (Angstroms)
             Li(  1)
   H (  2)  1.594900
 
 A cutoff of  1.0D-14 yielded   1891 shell pairs
 There are     40611 function pairs (     65226 Cartesian)
 
 -------------------------------------------------------
 OpenMP Integral Computing Module                       
 Release: version 1.0, May 2013, Q-Chem Inc. Pittsburgh 
 -------------------------------------------------------
 Integral Job Info:
 Integral job number is                      11
 Integral operator is                         1
 short-range coefficients              15000000
 long-range coefficients              100000000
 Omega coefficients                         300
 if combine SR and LR in K                    1
 Integral screening is                        0
 Integral computing path is                   2
 max size of driver memory is           6400000
 size of driver memory is               5498286
 size of scratch memory is             29330774
 max col of scratch BK array             194481
 max len of scratch array in speh3         5572
 max len of scratch index in speh4           72
 max int batch size is                      520
 min int batch size is                       52
 fixed nKL is                                14
 max L of basis functions is                  5
 order of int derivative is                   0
 number of shells is                         61
 number of basis is                         356
 number of cartesian basis is               356
 number of contracted shell pairs          1891
 number of primitive shell pairs           4858
 maxK2 (contraction) of shell pair          196
 max number of K2 of shell pair               1
 max number of CS2 of shell pair            198
 max number of PS2 of shell pair            588
 mem total for path MDJ                  871004
 -------------------------------------------------------
 Smallest overlap matrix eigenvalue = 4.57E-07
 Linear dependence detected in AO basis
 Number of orthogonalized atomic orbitals = 280
 Maximum deviation from orthogonality = 6.483E-11

 Scale SEOQF with 1.000000e-02/1.000000e-02/1.000000e-02

 Standard Electronic Orientation quadrupole field applied
 Guess MOs from core Hamiltonian diagonalization

 -----------------------------------------------------------------------
  General SCF calculation program by
  Eric Jon Sundstrom, Paul Horn, Yuezhi Mao, Dmitri Zuev, Alec White,
  David Stuck, Shaama M.S., Shane Yost, Joonho Lee, David Small,
  Daniel Levine, Susi Lehtola, Hugh Burton, Evgeny Epifanovsky
 -----------------------------------------------------------------------
 Exchange:     0.1500 Hartree-Fock + 1.0000 wB97M-V + LR-HF
 Correlation:  1.0000 wB97M-V
 Using Euler-Maclaurin-Lebedev (99,590) quadrature formula
 Nonlocal Correlation:  VV10 with C = 0.0100 and b = 6.00 and scale = 1.00000
 Grid used for NLC:  SG-1 standard quadrature
 using 16 threads for integral computing
 -------------------------------------------------------
 OpenMP Integral computing Module                
 Release: version 1.0, May 2013, Q-Chem Inc. Pittsburgh 
 -------------------------------------------------------
 using 16 threads for integral computing
 -------------------------------------------------------
 OpenMP Integral computing Module                
 Release: version 1.0, May 2013, Q-Chem Inc. Pittsburgh 
 -------------------------------------------------------
 -------------------------------------------------------
 OpenMP BLAS3 based DFT computing Module                
 Release: version 1.0, May 2013, Q-Chem Inc. Pittsburgh 
 -------------------------------------------------------
 -------------------------------------------------------
 OpenMP BLAS3 based DFT computing Module                
 Release: version 1.0, May 2013, Q-Chem Inc. Pittsburgh 
 -------------------------------------------------------
 -------------------------------------------------------
 OpenMP BLAS3 based DFT computing Module                
 Release: version 1.0, May 2013, Q-Chem Inc. Pittsburgh 
 -------------------------------------------------------
 Nonlocal correlation = 0.018103814069
 A restricted SCF calculation will be
 performed using GDM
 SCF converges when RMS gradient is below 1.0e-08
 ---------------------------------------
  Cycle       Energy        RMS Gradient
 ---------------------------------------
 Nonlocal correlation = 1.780653302613e-02
    1      -7.3837865243      4.55e-01   Descent step
 Nonlocal correlation = 1.772009419027e-02
    2      -7.9217819962      1.13e-01   Normal BFGS step
 Nonlocal correlation = 1.773165786214e-02
    3      -8.0551121017      3.47e-02   Normal BFGS step
 Nonlocal correlation = 1.771378683963e-02
    4      -8.0628320376      8.69e-03   Normal BFGS step
 Nonlocal correlation = 1.771965355261e-02
    5      -8.0634220255      4.76e-03   Normal BFGS step
 Nonlocal correlation = 1.771770234816e-02
    6      -8.0635783823      1.55e-03   Normal BFGS step
 Nonlocal correlation = 1.771733529599e-02
    7      -8.0635887552      4.02e-04   Normal BFGS step
 Nonlocal correlation = 1.771732262557e-02
    8      -8.0635894584      9.27e-05   Normal BFGS step
 Nonlocal correlation = 1.771733876582e-02
    9      -8.0635894979      1.44e-05   Normal BFGS step
 Nonlocal correlation = 1.771734069421e-02
   10      -8.0635894994      2.67e-06   Normal BFGS step
 Nonlocal correlation = 1.771734061376e-02
   11      -8.0635894994      2.69e-07   Normal BFGS step
 Nonlocal correlation = 1.771734056158e-02
   12      -8.0635894994      4.77e-08   Normal BFGS step
 Nonlocal correlation = 1.771734055263e-02
   13      -8.0635894994      8.53e-09  Convergence criterion met
 ---------------------------------------
 SCF time:   CPU 6829.16s  wall 466.00s 
 SCF   energy in the final basis set =       -8.0635894994
 Total energy in the final basis set =       -8.0635894994
 
 --------------------------------------------------------------
 
                    Orbital Energies (a.u.)
 --------------------------------------------------------------
 
 Alpha MOs
 -- Occupied --
 -2.123  -0.282
 -- Virtual --
 -0.023   0.006   0.006   0.010   0.015   0.026   0.026   0.040
  0.055   0.055   0.058   0.058   0.058   0.064   0.080   0.080
  0.096   0.130   0.130   0.133   0.133   0.133   0.133   0.134
  0.166   0.178   0.178   0.182   0.183   0.183   0.190   0.190
  0.229   0.291   0.293   0.293   0.311   0.311   0.315   0.315
  0.317   0.319   0.319   0.328   0.328   0.338   0.338   0.344
  0.344   0.354   0.363   0.363   0.380   0.442   0.442   0.445
  0.445   0.472   0.491   0.491   0.523   0.603   0.626   0.626
  0.631   0.631   0.635   0.635   0.655   0.687   0.687   0.706
  0.707   0.707   0.707   0.708   0.708   0.714   0.714   0.740
  0.763   0.763   0.781   0.781   0.800   0.822   0.822   0.832
  0.832   0.885   0.920   0.920   0.929   0.929   0.958   0.967
  0.967   1.025   1.025   1.030   1.030   1.045   1.058   1.087
  1.087   1.088   1.088   1.100   1.100   1.274   1.337   1.337
  1.500   1.500   1.577   1.584   1.584   1.600   1.632   1.632
  1.692   1.692   1.720   1.819   1.819   1.836   1.839   1.839
  1.841   1.841   1.867   1.867   1.881   1.881   1.900   1.900
  1.925   1.925   1.950   1.950   1.950   1.959   1.959   1.983
  1.983   1.989   1.989   2.026   2.026   2.163   2.333   2.384
  2.384   2.519   2.519   2.641   2.642   2.642   2.720   2.720
  2.771   2.856   2.856   2.969   2.996   2.996   3.038   3.038
  3.056   3.056   3.075   3.075   3.113   3.196   3.196   3.449
  3.449   3.464   3.652   3.652   4.022   4.022   4.034   4.221
  4.221   4.450   4.476   4.476   4.680   4.680   4.785   5.547
  5.547   5.766   5.766   5.844   6.019   6.019   6.047   6.391
  6.391   6.746   8.328   8.329   8.591   8.591   8.756  11.156
 12.367  12.367  12.475  12.475  12.546  12.546  12.566  12.566
 12.692  12.706  12.706  12.807  12.807  12.889  12.889  13.097
 13.460  13.731  13.731  14.023  14.076  14.076  14.204  14.204
 14.473  16.706  16.706  16.803  16.803  16.812  16.812  16.860
 16.860  16.966  17.200  27.042  27.219  27.225  27.392  27.392
 28.881  37.845  37.845  38.062  43.765  43.766  43.766  43.768
 43.768  43.770  43.774  43.774  43.782  59.686  62.938  62.938
 62.939  62.939  62.959  62.959  63.211  84.223  84.233  84.345
 84.345  84.604  99.356 107.500 107.500 107.888
 --------------------------------------------------------------
 
          Ground-State Mulliken Net Atomic Charges

     Atom                 Charge (a.u.)
  ----------------------------------------
      1 Li                   -0.735033
      2 H                     0.735033
  ----------------------------------------
  Sum of atomic charges =    -0.000000

 -----------------------------------------------------------------
                    Cartesian Multipole Moments
 -----------------------------------------------------------------
    Charge (ESU x 10^10)
                -0.0000
    Dipole Moment (Debye)
         X       0.0000      Y      -0.0000      Z      -5.7518
       Tot       5.7518
    Quadrupole Moments (Debye-Ang)
        XX      -5.5530     XY      -0.0000     YY      -5.5530
        XZ       0.0000     YZ      -0.0000     ZZ     -11.9478
    Octopole Moments (Debye-Ang^2)
       XXX       0.0000    XXY      -0.0000    XYY       0.0000
       YYY      -0.0000    XXZ      -6.4322    XYZ      -0.0000
       YYZ      -6.4322    XZZ       0.0000    YZZ      -0.0000
       ZZZ     -26.5298
    Hexadecapole Moments (Debye-Ang^3)
      XXXX     -13.5498   XXXY      -0.0000   XXYY      -4.5166
      XYYY      -0.0000   YYYY     -13.5498   XXXZ       0.0000
      XXYZ      -0.0000   XYYZ       0.0000   YYYZ      -0.0000
      XXZZ     -12.6234   XYZZ      -0.0000   YYZZ     -12.6234
      XZZZ       0.0000   YZZZ      -0.0000   ZZZZ     -70.6468
 -----------------------------------------------------------------
Archival summary:
1\1\n0089.mhg0\SP\ProcedureUnspecified\BasisUnspecified\i11\yhljason\FriNov612:47:342020FriNov612:47:342020\0\\#,ProcedureUnspecified,BasisUnspecified,\\0,1\Li\H,1,1.5949\\\@

 Total job time:  469.50s(wall), 6848.09s(cpu) 
 Fri Nov  6 12:47:34 2020

        *************************************************************
        *                                                           *
        *  Thank you very much for using Q-Chem.  Have a nice day.  *
        *                                                           *
        *************************************************************


 
User input: 2 of 6 
 
Q-Chem Developer Version!
                  Welcome to Q-Chem
     A Quantum Leap Into The Future Of Chemistry


 Q-Chem 5.1, Q-Chem, Inc., Pleasanton, CA (2018)

 Yihan Shao,  Zhengting Gan,  E. Epifanovsky,  A. T. B. Gilbert,  M. Wormit,  
 J. Kussmann,  A. W. Lange,  A. Behn,  Jia Deng,  Xintian Feng,  D. Ghosh,  
 M. Goldey,  P. R. Horn,  L. D. Jacobson,  I. Kaliman,  T. Kus,  A. Landau,  
 Jie Liu,  E. I. Proynov,  R. M. Richard,  R. P. Steele,  E. J. Sundstrom,  
 H. L. Woodcock III,  P. M. Zimmerman,  D. Zuev,  B. Albrecht,  E. Alguire,  
 S. A. Baeppler,  D. Barton,  Z. Benda,  Y. A. Bernard,  E. J. Berquist,  
 K. B. Bravaya,  H. Burton,  D. Casanova,  Chun-Min Chang,  Yunqing Chen,  
 A. Chien,  K. D. Closser,  M. P. Coons,  S. Coriani,  S. Dasgupta,  
 A. L. Dempwolff,  M. Diedenhofen,  Hainam Do,  R. G. Edgar,  Po-Tung Fang,  
 S. Faraji,  S. Fatehi,  Qingguo Feng,  K. D. Fenk,  J. Fosso-Tande,  
 Qinghui Ge,  A. Ghysels,  G. Gidofalvi,  J. Gomes,  J. Gonthier,  A. Gunina,  
 D. Hait,  M. W. D. Hanson-Heine,  P. H. P. Harbach,  A. W. Hauser,  
 J. E. Herr,  E. G. Hohenstein,  Z. C. Holden,  Kerwin Hui,  B. C. Huynh,  
 T.-C. Jagau,  Hyunjun Ji,  B. Kaduk,  K. Khistyaev,  Jaehoon Kim,  
 P. Klunzinger,  K. Koh,  D. Kosenkov,  L. Koulias,  T. Kowalczyk,  
 C. M. Krauter,  A. Kunitsa,  Ka Un Lao,  A. Laurent,  K. V. Lawler,  
 Joonho Lee,  D. Lefrancois,  S. Lehtola,  D. S. Levine,  Yi-Pei Li,  
 You-Sheng Lin,  Fenglai Liu,  E. Livshits,  A. Luenser,  P. Manohar,  
 E. Mansoor,  S. F. Manzer,  Shan-Ping Mao,  Yuezhi Mao,  N. Mardirossian,  
 A. V. Marenich,  T. Markovich,  L. A. Martinez-Martinez,  S. A. Maurer,  
 N. J. Mayhall,  S. C. McKenzie,  J.-M. Mewes,  A. F. Morrison,  
 J. W. Mullinax,  K. Nanda,  T. S. Nguyen-Beck,  R. Olivares-Amaya,  
 J. A. Parkhill,  T. M. Perrine,  F. Plasser,  P. Pokhilko,  S. Prager,  
 A. Prociuk,  E. Ramos,  D. R. Rehn,  F. Rob,  M. Schneider,  N. Sergueev,  
 S. M. Sharada,  S. Sharma,  D. W. Small,  T. Stauch,  T. Stein,  
 Yu-Chuan Su,  A. J. W. Thom,  A. Tkatchenko,  T. Tsuchimochi,  N. M. Tubman,  
 L. Vogt,  M. L. Vidal,  O. Vydrov,  M. A. Watson,  J. Wenzel,  
 M. de Wergifosse,  T. A. Wesolowski,  A. White,  J. Witte,  A. Yamada,  
 Jun Yang,  K. Yao,  S. Yeganeh,  S. R. Yost,  Zhi-Qiang You,  A. Zech,  
 Igor Ying Zhang,  Xing Zhang,  Yan Zhao,  Ying Zhu,  B. R. Brooks,  
 G. K. L. Chan,  C. J. Cramer,  M. S. Gordon,  W. J. Hehre,  A. Klamt,  
 M. W. Schmidt,  C. D. Sherrill,  D. G. Truhlar,  A. Aspuru-Guzik,  R. Baer,  
 A. T. Bell,  N. A. Besley,  Jeng-Da Chai,  A. E. DePrince, III,  
 R. A. DiStasio Jr.,  A. Dreuw,  B. D. Dunietz,  T. R. Furlani,  
 Chao-Ping Hsu,  Yousung Jung,  Jing Kong,  D. S. Lambrecht,  WanZhen Liang,  
 C. Ochsenfeld,  V. A. Rassolov,  L. V. Slipchenko,  J. E. Subotnik,  
 T. Van Voorhis,  J. M. Herbert,  A. I. Krylov,  P. M. W. Gill,  M. Head-Gordon

 Contributors to earlier versions of Q-Chem not listed above: 
 R. D. Adamson,  B. Austin,  J. Baker,  G. J. O. Beran,  K. Brandhorst,  
 S. T. Brown,  E. F. C. Byrd,  A. K. Chakraborty,  C.-L. Cheng,  
 Siu Hung Chien,  D. M. Chipman,  D. L. Crittenden,  H. Dachsel,  
 R. J. Doerksen,  A. D. Dutoi,  L. Fusti-Molnar,  W. A. Goddard III,  
 A. Golubeva-Zadorozhnaya,  S. R. Gwaltney,  G. Hawkins,  A. Heyden,  
 S. Hirata,  G. Kedziora,  F. J. Keil,  C. Kelley,  Jihan Kim,  R. A. King,  
 R. Z. Khaliullin,  P. P. Korambath,  W. Kurlancheek,  A. M. Lee,  M. S. Lee,  
 S. V. Levchenko,  Ching Yeh Lin,  D. Liotard,  R. C. Lochan,  I. Lotan,  
 P. E. Maslen,  N. Nair,  D. P. O'Neill,  D. Neuhauser,  E. Neuscamman,  
 C. M. Oana,  R. Olson,  B. Peters,  R. Peverati,  P. A. Pieniazek,  
 Y. M. Rhee,  J. Ritchie,  M. A. Rohrdanz,  E. Rosta,  N. J. Russ,  
 H. F. Schaefer III,  N. E. Schultz,  N. Shenvi,  A. C. Simmonett,  A. Sodt,  
 D. Stuck,  K. S. Thanthiriwatte,  V. Vanovschi,  Tao Wang,  A. Warshel,  
 C. F. Williams,  Q. Wu,  X. Xu,  W. Zhang

 Please cite Q-Chem as follows:
 Y. Shao et al., Mol. Phys. 113, 184-215 (2015)
 DOI: 10.1080/00268976.2014.952696

 Q-Chem 5.1.1 for Intel X86 EM64T Linux

 Parts of Q-Chem use Armadillo 8.300.2 (Tropical Shenanigans).
 http://arma.sourceforge.net/

 Q-Chem begins on Fri Nov  6 12:47:34 2020  

Host: n0089.mhg0
0

     Scratch files written to /local/scratch/users/yhljason/LiH_wB97M2_aug-cc-pcV5Z.inp20201106123942//
The previous job contains 0 fragments, simply inherited here
Input Ideriv = 0
Curr. Ideriv = -1
Max.  Ideriv = 0
Analytic post-HF gradients are not available with non-HF exchange
Input Ideriv = 0
Curr. Ideriv = 0
Max.  Ideriv = 0

Checking the input file for inconsistencies... 	...done.

--------------------------------------------------------------
User input:
--------------------------------------------------------------
$molecule
read
$end

$rem
jobtype sp
exchange wB97M(2)
xc_grid 000099000590
basis gen
max_scf_cycles 200
thresh 14
scf_convergence 8
scf_algorithm gdm
symmetry false
sym_ignore true
unrestricted false
gen_scfman false
mem_total 128000
cc_memory 96000
cc_backend xm
mem_static 1500
n_frozen_core 500
scf_guess read
$end

$basis
****
H
aug-cc-pcV5Z
****
Li     0
S   14   1.00
  29493.0000000              1.8000000e-05
   4417.1010000              1.4100000e-04
   1005.2230000              7.3900000e-04
    284.7009000              3.1070000e-03
     92.8654300              1.1135000e-02
     33.5117900              3.4670000e-02
     13.0418000              9.2171000e-02
      5.3575360              1.9957600e-01
      2.2793380              3.2883600e-01
      0.9939900              3.4597500e-01
      0.4334710              1.4276100e-01
      0.0955660              5.3190000e-03
      0.0446570             -2.1010000e-03
      0.0206330              8.1500000e-04
S   14   1.00
  29493.0000000             -3.0000000e-06
   4417.1010000             -2.2000000e-05
   1005.2230000             -1.1500000e-04
    284.7009000             -4.8700000e-04
     92.8654300             -1.7460000e-03
     33.5117900             -5.5200000e-03
     13.0418000             -1.4928000e-02
      5.3575360             -3.4206000e-02
      2.2793380             -6.2155000e-02
      0.9939900             -9.5902000e-02
      0.4334710             -1.0397200e-01
      0.0955660              3.0715100e-01
      0.0446570              5.7902800e-01
      0.0206330              2.2323100e-01
S   1   1.00
      0.4334710              1.0000000e+00
S   1   1.00
      0.0955660              1.0000000e+00
S   1   1.00
      0.0446570              1.0000000e+00
S   1   1.00
      0.0206330              1.0000000e+00
P   8   1.00
     19.6635000              5.4000000e-04
      4.6231100              3.8650000e-03
      1.4137800              1.5171000e-02
      0.4737210              4.9204000e-02
      0.1761510              1.5466100e-01
      0.0726750              3.6009500e-01
      0.0321410              4.4185200e-01
      0.0145560              1.5600000e-01
P   1   1.00
      0.1761510              1.0000000e+00
P   1   1.00
      0.0726750              1.0000000e+00
P   1   1.00
      0.0321410              1.0000000e+00
P   1   1.00
      0.0145560              1.0000000e+00
D   1   1.00
      0.5310000              1.0000000e+00
D   1   1.00
      0.2481000              1.0000000e+00
D   1   1.00
      0.1159000              1.0000000e+00
D   1   1.00
      0.0542000              1.0000000e+00
F   1   1.00
      0.2920000              1.0000000e+00
F   1   1.00
      0.1641000              1.0000000e+00
F   1   1.00
      0.0922000              1.0000000e+00
G   1   1.00
      0.2971000              1.0000000e+00
G   1   1.00
      0.1500000              1.0000000e+00
H   1   1.00
      0.2949000              1.0000000e+00
S   1   1.00
     27.8558000              1.0000000
S   1   1.00
     12.5082000              1.0000000
S   1   1.00
      5.6166000              1.0000000
S   1   1.00
      2.5221000              1.0000000
P   1   1.00
     29.2095000              1.0000000
P   1   1.00
     11.1763000              1.0000000
P   1   1.00
      4.2763000              1.0000000
P   1   1.00
      1.6362000              1.0000000
D   1   1.00
     19.8455000              1.0000000
D   1   1.00
      7.1492000              1.0000000
D   1   1.00
      2.5754000              1.0000000
F   1   1.00
     13.2502000              1.0000000
F   1   1.00
      4.1991000              1.0000000
G   1   1.00
      8.4093000              1.0000000
S   1   1.00
      0.0061000              1.0000000
P   1   1.00
      0.0065000              1.0000000
D   1   1.00
      0.0235000              1.0000000
F   1   1.00
      0.0448000              1.0000000
G   1   1.00
      0.0724000              1.0000000
H   1   1.00
      0.1274000              1.0000000
****
$end

--------------------------------------------------------------
 ----------------------------------------------------------------
             Standard Nuclear Orientation (Angstroms)
    I     Atom           X                Y                Z
 ----------------------------------------------------------------
    1      Li      0.0000000000     0.0000000000     0.0000000000
    2      H       0.0000000000     0.0000000000     1.5949000000
 ----------------------------------------------------------------
 Nuclear Repulsion Energy =     0.9953800441 hartrees
 There are        2 alpha and        2 beta electrons

 Q-Chem warning in module forms1/BasisType.C, line 1703:

 Setting pure/cartesian flag to 2111 for general basis


 Requested basis set is non-standard
 There are 61 shells and 281 basis functions

 Total QAlloc Memory Limit 128000 MB
 Mega-Array Size      1467 MB
 MEM_STATIC part      1500 MB

                       Distance Matrix (Angstroms)
             Li(  1)
   H (  2)  1.594900
 
 A cutoff of  1.0D-14 yielded   1891 shell pairs
 There are     40611 function pairs (     65226 Cartesian)
 
 -------------------------------------------------------
 OpenMP Integral Computing Module                       
 Release: version 1.0, May 2013, Q-Chem Inc. Pittsburgh 
 -------------------------------------------------------
 Integral Job Info:
 Integral job number is                      11
 Integral operator is                         1
 short-range coefficients              15000000
 long-range coefficients              100000000
 Omega coefficients                         300
 if combine SR and LR in K                    1
 Integral screening is                        0
 Integral computing path is                   2
 max size of driver memory is           6400000
 size of driver memory is               5498286
 size of scratch memory is             29330774
 max col of scratch BK array             194481
 max len of scratch array in speh3         5572
 max len of scratch index in speh4           72
 max int batch size is                      520
 min int batch size is                       52
 fixed nKL is                                14
 max L of basis functions is                  5
 order of int derivative is                   0
 number of shells is                         61
 number of basis is                         356
 number of cartesian basis is               356
 number of contracted shell pairs          1891
 number of primitive shell pairs           4858
 maxK2 (contraction) of shell pair          196
 max number of K2 of shell pair               1
 max number of CS2 of shell pair            198
 max number of PS2 of shell pair            588
 mem total for path MDJ                  871004
 -------------------------------------------------------
 Smallest overlap matrix eigenvalue = 4.57E-07
 Linear dependence detected in AO basis
 Number of orthogonalized atomic orbitals = 280
 Maximum deviation from orthogonality = 6.483E-11

 Scale SEOQF with 1.000000e-02/1.000000e-02/1.000000e-02

 Standard Electronic Orientation quadrupole field applied
 Guess MOs from SCF MO coefficient file
 Reading MOs from coefficient file
 Size of previous SCF MO coefficient file: 157920 (expected); 157922 (actual). 

 Q-Chem warning in module gesman/GuessMan.C, line 748:

 Inconsistent size for SCF MO coefficient file.  Please check basis and PURECART setting.

 Reading MOs from coefficient file
 Long-range K will be added via erf
 Coulomb attenuation parameter = 0.3 bohr**(-1)
 A restricted hybrid HF-DFT SCF calculation will be
 performed using Geometric Direct Minimization
 Exchange:     0.1500 Hartree-Fock + 1.0000 wB97M-V + LR-HF
 Correlation:  1.0000 wB97M-V
 Using Euler-Maclaurin-Lebedev (99,590) quadrature formula
 Nonlocal Correlation:  VV10 with C = 0.0100 and b = 6.00 and scale = 1.00000
 Grid used for NLC:  SG-1 standard quadrature
 SCF converges when RMS gradient is below 1.0E-08
Using Q-Chem read-in guess as SCF_GUESS READ specified.

 using 16 threads for integral computing
 -------------------------------------------------------
 OpenMP Integral computing Module                
 Release: version 1.0, May 2013, Q-Chem Inc. Pittsburgh 
 -------------------------------------------------------
 using 16 threads for integral computing
 -------------------------------------------------------
 OpenMP Integral computing Module                
 Release: version 1.0, May 2013, Q-Chem Inc. Pittsburgh 
 -------------------------------------------------------
TIMEINFO->: J/JK contribution 461.82 sec.
 -------------------------------------------------------
 OpenMP BLAS3 based DFT computing Module                
 Release: version 1.0, May 2013, Q-Chem Inc. Pittsburgh 
 -------------------------------------------------------
 -------------------------------------------------------
 OpenMP BLAS3 based DFT computing Module                
 Release: version 1.0, May 2013, Q-Chem Inc. Pittsburgh 
 -------------------------------------------------------
 -------------------------------------------------------
 OpenMP BLAS3 based DFT computing Module                
 Release: version 1.0, May 2013, Q-Chem Inc. Pittsburgh 
 -------------------------------------------------------
 ---------------------------------------
  Cycle       Energy        RMS Gradient
 ---------------------------------------
    1      -8.0635894994      6.07E-10 Normal BFGS step
TIMEINFO->: J/JK contribution 459.96 sec.
 Nonlocal correlation =     0.0056048847
    2      -8.0635894994      2.57E-10 Convergence criterion met
 ---------------------------------------
 wB97M-V orbitals are now ready for the wB97M(2) calculation.
 wB97M(2) energy = Exch (0.62194 SRHF + 1.0 LRHF + wB97M(2)_EXCH) + 
               Corr (wB97M(2)_CORR + 0.34096 MP2 + 0.65904 VV10(b=10))
 SCF time:  CPU 1843.27 s  wall 126.81 s
 SCF   energy in the final basis set = -8.05201290
 Total energy in the final basis set = -8.05201290

 Q-Chem fatal error occurred in module libmdc/qalloc.C, line 49:

 Illegal memory length in mega_alloc


 Please submit a crash report at q-chem.com/reporter 
 
 
 
User input: 3 of 6 
 
Q-Chem Developer Version!
                  Welcome to Q-Chem
     A Quantum Leap Into The Future Of Chemistry


 Q-Chem 5.1, Q-Chem, Inc., Pleasanton, CA (2018)

 Yihan Shao,  Zhengting Gan,  E. Epifanovsky,  A. T. B. Gilbert,  M. Wormit,  
 J. Kussmann,  A. W. Lange,  A. Behn,  Jia Deng,  Xintian Feng,  D. Ghosh,  
 M. Goldey,  P. R. Horn,  L. D. Jacobson,  I. Kaliman,  T. Kus,  A. Landau,  
 Jie Liu,  E. I. Proynov,  R. M. Richard,  R. P. Steele,  E. J. Sundstrom,  
 H. L. Woodcock III,  P. M. Zimmerman,  D. Zuev,  B. Albrecht,  E. Alguire,  
 S. A. Baeppler,  D. Barton,  Z. Benda,  Y. A. Bernard,  E. J. Berquist,  
 K. B. Bravaya,  H. Burton,  D. Casanova,  Chun-Min Chang,  Yunqing Chen,  
 A. Chien,  K. D. Closser,  M. P. Coons,  S. Coriani,  S. Dasgupta,  
 A. L. Dempwolff,  M. Diedenhofen,  Hainam Do,  R. G. Edgar,  Po-Tung Fang,  
 S. Faraji,  S. Fatehi,  Qingguo Feng,  K. D. Fenk,  J. Fosso-Tande,  
 Qinghui Ge,  A. Ghysels,  G. Gidofalvi,  J. Gomes,  J. Gonthier,  A. Gunina,  
 D. Hait,  M. W. D. Hanson-Heine,  P. H. P. Harbach,  A. W. Hauser,  
 J. E. Herr,  E. G. Hohenstein,  Z. C. Holden,  Kerwin Hui,  B. C. Huynh,  
 T.-C. Jagau,  Hyunjun Ji,  B. Kaduk,  K. Khistyaev,  Jaehoon Kim,  
 P. Klunzinger,  K. Koh,  D. Kosenkov,  L. Koulias,  T. Kowalczyk,  
 C. M. Krauter,  A. Kunitsa,  Ka Un Lao,  A. Laurent,  K. V. Lawler,  
 Joonho Lee,  D. Lefrancois,  S. Lehtola,  D. S. Levine,  Yi-Pei Li,  
 You-Sheng Lin,  Fenglai Liu,  E. Livshits,  A. Luenser,  P. Manohar,  
 E. Mansoor,  S. F. Manzer,  Shan-Ping Mao,  Yuezhi Mao,  N. Mardirossian,  
 A. V. Marenich,  T. Markovich,  L. A. Martinez-Martinez,  S. A. Maurer,  
 N. J. Mayhall,  S. C. McKenzie,  J.-M. Mewes,  A. F. Morrison,  
 J. W. Mullinax,  K. Nanda,  T. S. Nguyen-Beck,  R. Olivares-Amaya,  
 J. A. Parkhill,  T. M. Perrine,  F. Plasser,  P. Pokhilko,  S. Prager,  
 A. Prociuk,  E. Ramos,  D. R. Rehn,  F. Rob,  M. Schneider,  N. Sergueev,  
 S. M. Sharada,  S. Sharma,  D. W. Small,  T. Stauch,  T. Stein,  
 Yu-Chuan Su,  A. J. W. Thom,  A. Tkatchenko,  T. Tsuchimochi,  N. M. Tubman,  
 L. Vogt,  M. L. Vidal,  O. Vydrov,  M. A. Watson,  J. Wenzel,  
 M. de Wergifosse,  T. A. Wesolowski,  A. White,  J. Witte,  A. Yamada,  
 Jun Yang,  K. Yao,  S. Yeganeh,  S. R. Yost,  Zhi-Qiang You,  A. Zech,  
 Igor Ying Zhang,  Xing Zhang,  Yan Zhao,  Ying Zhu,  B. R. Brooks,  
 G. K. L. Chan,  C. J. Cramer,  M. S. Gordon,  W. J. Hehre,  A. Klamt,  
 M. W. Schmidt,  C. D. Sherrill,  D. G. Truhlar,  A. Aspuru-Guzik,  R. Baer,  
 A. T. Bell,  N. A. Besley,  Jeng-Da Chai,  A. E. DePrince, III,  
 R. A. DiStasio Jr.,  A. Dreuw,  B. D. Dunietz,  T. R. Furlani,  
 Chao-Ping Hsu,  Yousung Jung,  Jing Kong,  D. S. Lambrecht,  WanZhen Liang,  
 C. Ochsenfeld,  V. A. Rassolov,  L. V. Slipchenko,  J. E. Subotnik,  
 T. Van Voorhis,  J. M. Herbert,  A. I. Krylov,  P. M. W. Gill,  M. Head-Gordon

 Contributors to earlier versions of Q-Chem not listed above: 
 R. D. Adamson,  B. Austin,  J. Baker,  G. J. O. Beran,  K. Brandhorst,  
 S. T. Brown,  E. F. C. Byrd,  A. K. Chakraborty,  C.-L. Cheng,  
 Siu Hung Chien,  D. M. Chipman,  D. L. Crittenden,  H. Dachsel,  
 R. J. Doerksen,  A. D. Dutoi,  L. Fusti-Molnar,  W. A. Goddard III,  
 A. Golubeva-Zadorozhnaya,  S. R. Gwaltney,  G. Hawkins,  A. Heyden,  
 S. Hirata,  G. Kedziora,  F. J. Keil,  C. Kelley,  Jihan Kim,  R. A. King,  
 R. Z. Khaliullin,  P. P. Korambath,  W. Kurlancheek,  A. M. Lee,  M. S. Lee,  
 S. V. Levchenko,  Ching Yeh Lin,  D. Liotard,  R. C. Lochan,  I. Lotan,  
 P. E. Maslen,  N. Nair,  D. P. O'Neill,  D. Neuhauser,  E. Neuscamman,  
 C. M. Oana,  R. Olson,  B. Peters,  R. Peverati,  P. A. Pieniazek,  
 Y. M. Rhee,  J. Ritchie,  M. A. Rohrdanz,  E. Rosta,  N. J. Russ,  
 H. F. Schaefer III,  N. E. Schultz,  N. Shenvi,  A. C. Simmonett,  A. Sodt,  
 D. Stuck,  K. S. Thanthiriwatte,  V. Vanovschi,  Tao Wang,  A. Warshel,  
 C. F. Williams,  Q. Wu,  X. Xu,  W. Zhang

 Please cite Q-Chem as follows:
 Y. Shao et al., Mol. Phys. 113, 184-215 (2015)
 DOI: 10.1080/00268976.2014.952696

 Q-Chem 5.1.1 for Intel X86 EM64T Linux

 Parts of Q-Chem use Armadillo 8.300.2 (Tropical Shenanigans).
 http://arma.sourceforge.net/

 Q-Chem begins on Fri Nov  6 12:49:44 2020  

Host: n0089.mhg0
0

     Scratch files written to /local/scratch/users/yhljason/LiH_wB97M2_aug-cc-pcV5Z.inp20201106123942//
The previous job contains 0 fragments, simply inherited here
Input Ideriv = 2
Curr. Ideriv = -1
Max.  Ideriv = 2
Input Ideriv = 1
Curr. Ideriv = 2
Max.  Ideriv = 1

Checking the input file for inconsistencies... 	...done.

--------------------------------------------------------------
User input:
--------------------------------------------------------------
$molecule
read
$end

$rem

jobtype sp
method wb97m-v
xc_grid 000099000590
basis gen
max_scf_cycles 200
thresh 14
scf_convergence 8
mem_total 128000
cc_memory 96000
cc_backend xm
mem_static 1500
symmetry false
sym_ignore true
scf_guess read
unrestricted false
scf_algorithm gdm
n_frozen_core 500
gen_scfman true
$end

$multipole_field
Z 0.0001
$end

$basis
****
H
aug-cc-pcV5Z
****
Li     0
S   14   1.00
  29493.0000000              1.8000000e-05
   4417.1010000              1.4100000e-04
   1005.2230000              7.3900000e-04
    284.7009000              3.1070000e-03
     92.8654300              1.1135000e-02
     33.5117900              3.4670000e-02
     13.0418000              9.2171000e-02
      5.3575360              1.9957600e-01
      2.2793380              3.2883600e-01
      0.9939900              3.4597500e-01
      0.4334710              1.4276100e-01
      0.0955660              5.3190000e-03
      0.0446570             -2.1010000e-03
      0.0206330              8.1500000e-04
S   14   1.00
  29493.0000000             -3.0000000e-06
   4417.1010000             -2.2000000e-05
   1005.2230000             -1.1500000e-04
    284.7009000             -4.8700000e-04
     92.8654300             -1.7460000e-03
     33.5117900             -5.5200000e-03
     13.0418000             -1.4928000e-02
      5.3575360             -3.4206000e-02
      2.2793380             -6.2155000e-02
      0.9939900             -9.5902000e-02
      0.4334710             -1.0397200e-01
      0.0955660              3.0715100e-01
      0.0446570              5.7902800e-01
      0.0206330              2.2323100e-01
S   1   1.00
      0.4334710              1.0000000e+00
S   1   1.00
      0.0955660              1.0000000e+00
S   1   1.00
      0.0446570              1.0000000e+00
S   1   1.00
      0.0206330              1.0000000e+00
P   8   1.00
     19.6635000              5.4000000e-04
      4.6231100              3.8650000e-03
      1.4137800              1.5171000e-02
      0.4737210              4.9204000e-02
      0.1761510              1.5466100e-01
      0.0726750              3.6009500e-01
      0.0321410              4.4185200e-01
      0.0145560              1.5600000e-01
P   1   1.00
      0.1761510              1.0000000e+00
P   1   1.00
      0.0726750              1.0000000e+00
P   1   1.00
      0.0321410              1.0000000e+00
P   1   1.00
      0.0145560              1.0000000e+00
D   1   1.00
      0.5310000              1.0000000e+00
D   1   1.00
      0.2481000              1.0000000e+00
D   1   1.00
      0.1159000              1.0000000e+00
D   1   1.00
      0.0542000              1.0000000e+00
F   1   1.00
      0.2920000              1.0000000e+00
F   1   1.00
      0.1641000              1.0000000e+00
F   1   1.00
      0.0922000              1.0000000e+00
G   1   1.00
      0.2971000              1.0000000e+00
G   1   1.00
      0.1500000              1.0000000e+00
H   1   1.00
      0.2949000              1.0000000e+00
S   1   1.00
     27.8558000              1.0000000
S   1   1.00
     12.5082000              1.0000000
S   1   1.00
      5.6166000              1.0000000
S   1   1.00
      2.5221000              1.0000000
P   1   1.00
     29.2095000              1.0000000
P   1   1.00
     11.1763000              1.0000000
P   1   1.00
      4.2763000              1.0000000
P   1   1.00
      1.6362000              1.0000000
D   1   1.00
     19.8455000              1.0000000
D   1   1.00
      7.1492000              1.0000000
D   1   1.00
      2.5754000              1.0000000
F   1   1.00
     13.2502000              1.0000000
F   1   1.00
      4.1991000              1.0000000
G   1   1.00
      8.4093000              1.0000000
S   1   1.00
      0.0061000              1.0000000
P   1   1.00
      0.0065000              1.0000000
D   1   1.00
      0.0235000              1.0000000
F   1   1.00
      0.0448000              1.0000000
G   1   1.00
      0.0724000              1.0000000
H   1   1.00
      0.1274000              1.0000000
****
$end

--------------------------------------------------------------
 ----------------------------------------------------------------
             Standard Nuclear Orientation (Angstroms)
    I     Atom           X                Y                Z
 ----------------------------------------------------------------
    1      Li      0.0000000000     0.0000000000     0.0000000000
    2      H       0.0000000000     0.0000000000     1.5949000000
 ----------------------------------------------------------------
 Nuclear Repulsion Energy =     0.9953800441 hartrees
 There are        2 alpha and        2 beta electrons

 Q-Chem warning in module forms1/BasisType.C, line 1703:

 Setting pure/cartesian flag to 2111 for general basis


 Requested basis set is non-standard
 There are 61 shells and 281 basis functions

 Total QAlloc Memory Limit 128000 MB
 Mega-Array Size      1467 MB
 MEM_STATIC part      1500 MB

                       Distance Matrix (Angstroms)
             Li(  1)
   H (  2)  1.594900
 
 Applying Cartesian multipole field
    Component          Value
    ---------          -----
     (0,0,1)        1.00000E-04
 Nucleus-field energy     =     0.0003013924 hartrees
 A cutoff of  1.0D-14 yielded   1891 shell pairs
 There are     40611 function pairs (     65226 Cartesian)
 
 -------------------------------------------------------
 OpenMP Integral Computing Module                       
 Release: version 1.0, May 2013, Q-Chem Inc. Pittsburgh 
 -------------------------------------------------------
 Integral Job Info:
 Integral job number is                      11
 Integral operator is                         1
 short-range coefficients              15000000
 long-range coefficients              100000000
 Omega coefficients                         300
 if combine SR and LR in K                    1
 Integral screening is                        0
 Integral computing path is                   2
 max size of driver memory is           6400000
 size of driver memory is               5498286
 size of scratch memory is             29330774
 max col of scratch BK array             194481
 max len of scratch array in speh3         5572
 max len of scratch index in speh4           72
 max int batch size is                      520
 min int batch size is                       52
 fixed nKL is                                14
 max L of basis functions is                  5
 order of int derivative is                   0
 number of shells is                         61
 number of basis is                         356
 number of cartesian basis is               356
 number of contracted shell pairs          1891
 number of primitive shell pairs           4858
 maxK2 (contraction) of shell pair          196
 max number of K2 of shell pair               1
 max number of CS2 of shell pair            198
 max number of PS2 of shell pair            588
 mem total for path MDJ                  871004
 -------------------------------------------------------
 Smallest overlap matrix eigenvalue = 4.57E-07
 Linear dependence detected in AO basis
 Number of orthogonalized atomic orbitals = 280
 Maximum deviation from orthogonality = 6.483E-11
 Guess MOs from SCF MO coefficient file

 -----------------------------------------------------------------------
  General SCF calculation program by
  Eric Jon Sundstrom, Paul Horn, Yuezhi Mao, Dmitri Zuev, Alec White,
  David Stuck, Shaama M.S., Shane Yost, Joonho Lee, David Small,
  Daniel Levine, Susi Lehtola, Hugh Burton, Evgeny Epifanovsky
 -----------------------------------------------------------------------
 Exchange:     0.1500 Hartree-Fock + 1.0000 wB97M-V + LR-HF
 Correlation:  1.0000 wB97M-V
 Using Euler-Maclaurin-Lebedev (99,590) quadrature formula
 Nonlocal Correlation:  VV10 with C = 0.0100 and b = 6.00 and scale = 1.00000
 Grid used for NLC:  SG-1 standard quadrature
 Size of previous SCF MO coefficient file: 157920 (expected); 157922 (actual). 

 Q-Chem warning in module libgscf/gen_scfman/rhf.C, line 637:

 Inconsistent size for SCF MO coefficient file.  Please check basis and PURECART setting.

 using 16 threads for integral computing
 -------------------------------------------------------
 OpenMP Integral computing Module                
 Release: version 1.0, May 2013, Q-Chem Inc. Pittsburgh 
 -------------------------------------------------------
 using 16 threads for integral computing
 -------------------------------------------------------
 OpenMP Integral computing Module                
 Release: version 1.0, May 2013, Q-Chem Inc. Pittsburgh 
 -------------------------------------------------------
 -------------------------------------------------------
 OpenMP BLAS3 based DFT computing Module                
 Release: version 1.0, May 2013, Q-Chem Inc. Pittsburgh 
 -------------------------------------------------------
 -------------------------------------------------------
 OpenMP BLAS3 based DFT computing Module                
 Release: version 1.0, May 2013, Q-Chem Inc. Pittsburgh 
 -------------------------------------------------------
 -------------------------------------------------------
 OpenMP BLAS3 based DFT computing Module                
 Release: version 1.0, May 2013, Q-Chem Inc. Pittsburgh 
 -------------------------------------------------------
 Nonlocal correlation = 0.017717340554
 A restricted SCF calculation will be
 performed using GDM
 SCF converges when RMS gradient is below 1.0e-08
 ---------------------------------------
  Cycle       Energy        RMS Gradient
 ---------------------------------------
 Nonlocal correlation = 1.771747038747e-02
    1      -8.0638157909      1.70e-04   Normal BFGS step
 Nonlocal correlation = 1.771748314537e-02
    2      -8.0638159079      6.68e-05   Normal BFGS step
 Nonlocal correlation = 1.771749156235e-02
    3      -8.0638159296      1.17e-05   Normal BFGS step
 Nonlocal correlation = 1.771749202640e-02
    4      -8.0638159305      3.04e-06   Normal BFGS step
 Nonlocal correlation = 1.771749277597e-02
    5      -8.0638159306      5.65e-07   Normal BFGS step
 Nonlocal correlation = 1.771749286250e-02
    6      -8.0638159306      1.72e-07   Normal BFGS step
 Nonlocal correlation = 1.771749286266e-02
    7      -8.0638159306      1.96e-08   Normal BFGS step
 Nonlocal correlation = 1.771749285636e-02
    8      -8.0638159306      3.76e-09  Convergence criterion met
 ---------------------------------------
 SCF time:   CPU 4405.93s  wall 305.00s 
 SCF   energy in the final basis set =       -8.0638159306
 Total energy in the final basis set =       -8.0638159306
 
 --------------------------------------------------------------
 
                    Orbital Energies (a.u.)
 --------------------------------------------------------------
 
 Alpha MOs
 -- Occupied --
 -2.123  -0.282
 -- Virtual --
 -0.022   0.006   0.006   0.010   0.014   0.026   0.026   0.040
  0.055   0.055   0.058   0.058   0.058   0.063   0.080   0.080
  0.096   0.130   0.130   0.133   0.133   0.133   0.133   0.134
  0.166   0.178   0.178   0.181   0.183   0.183   0.190   0.190
  0.229   0.291   0.293   0.293   0.311   0.311   0.315   0.315
  0.317   0.319   0.319   0.328   0.328   0.337   0.337   0.344
  0.344   0.354   0.363   0.363   0.380   0.442   0.442   0.445
  0.445   0.472   0.491   0.491   0.523   0.603   0.626   0.626
  0.631   0.631   0.635   0.635   0.655   0.687   0.687   0.707
  0.707   0.707   0.707   0.708   0.708   0.714   0.714   0.740
  0.763   0.763   0.782   0.782   0.800   0.822   0.822   0.832
  0.832   0.885   0.920   0.920   0.929   0.929   0.958   0.967
  0.967   1.025   1.025   1.030   1.030   1.045   1.058   1.088
  1.088   1.089   1.089   1.100   1.100   1.274   1.337   1.337
  1.500   1.500   1.577   1.584   1.584   1.600   1.631   1.631
  1.692   1.692   1.720   1.819   1.819   1.836   1.839   1.839
  1.841   1.841   1.868   1.868   1.881   1.881   1.901   1.901
  1.925   1.925   1.950   1.950   1.951   1.959   1.959   1.983
  1.983   1.989   1.989   2.026   2.026   2.163   2.333   2.384
  2.384   2.519   2.519   2.641   2.642   2.642   2.720   2.720
  2.771   2.856   2.856   2.969   2.996   2.996   3.039   3.039
  3.056   3.056   3.075   3.075   3.113   3.196   3.196   3.449
  3.449   3.464   3.652   3.652   4.022   4.022   4.034   4.221
  4.221   4.450   4.476   4.476   4.680   4.680   4.785   5.547
  5.547   5.767   5.767   5.844   6.019   6.019   6.047   6.391
  6.391   6.746   8.328   8.329   8.591   8.591   8.756  11.156
 12.366  12.366  12.475  12.475  12.546  12.546  12.566  12.566
 12.692  12.706  12.706  12.806  12.806  12.889  12.889  13.096
 13.460  13.731  13.731  14.023  14.076  14.076  14.204  14.204
 14.473  16.706  16.706  16.802  16.802  16.812  16.812  16.860
 16.860  16.966  17.200  27.042  27.219  27.225  27.392  27.392
 28.881  37.845  37.845  38.062  43.765  43.766  43.766  43.768
 43.768  43.770  43.774  43.774  43.782  59.686  62.938  62.938
 62.939  62.939  62.959  62.959  63.211  84.223  84.233  84.345
 84.345  84.604  99.356 107.500 107.500 107.888
 --------------------------------------------------------------
 
          Ground-State Mulliken Net Atomic Charges

     Atom                 Charge (a.u.)
  ----------------------------------------
      1 Li                   -0.732910
      2 H                     0.732910
  ----------------------------------------
  Sum of atomic charges =    -0.000000

 -----------------------------------------------------------------
                    Cartesian Multipole Moments
 -----------------------------------------------------------------
    Charge (ESU x 10^10)
                -0.0000
    Dipole Moment (Debye)
         X       0.0000      Y      -0.0000      Z      -5.7589
       Tot       5.7589
    Quadrupole Moments (Debye-Ang)
        XX      -5.5515     XY       0.0000     YY      -5.5515
        XZ      -0.0000     YZ       0.0000     ZZ     -11.9639
    Octopole Moments (Debye-Ang^2)
       XXX       0.0000    XXY      -0.0000    XYY       0.0000
       YYY       0.0000    XXZ      -6.4394    XYZ       0.0000
       YYZ      -6.4394    XZZ      -0.0000    YZZ       0.0000
       ZZZ     -26.5829
    Hexadecapole Moments (Debye-Ang^3)
      XXXX     -13.5415   XXXY       0.0000   XXYY      -4.5138
      XYYY       0.0000   YYYY     -13.5415   XXXZ      -0.0000
      XXYZ      -0.0000   XYYZ      -0.0000   YYYZ      -0.0000
      XXZZ     -12.6387   XYZZ       0.0000   YYZZ     -12.6387
      XZZZ      -0.0000   YZZZ       0.0000   ZZZZ     -70.7991
 -----------------------------------------------------------------
Archival summary:
1\1\n0089.mhg0\SP\ProcedureUnspecified\BasisUnspecified\i11\yhljason\FriNov612:54:522020FriNov612:54:522020\0\\#,ProcedureUnspecified,BasisUnspecified,\\0,1\Li\H,1,1.5949\\\@

 Total job time:  308.08s(wall), 4423.98s(cpu) 
 Fri Nov  6 12:54:53 2020

        *************************************************************
        *                                                           *
        *  Thank you very much for using Q-Chem.  Have a nice day.  *
        *                                                           *
        *************************************************************


 
User input: 4 of 6 
 
Q-Chem Developer Version!
                  Welcome to Q-Chem
     A Quantum Leap Into The Future Of Chemistry


 Q-Chem 5.1, Q-Chem, Inc., Pleasanton, CA (2018)

 Yihan Shao,  Zhengting Gan,  E. Epifanovsky,  A. T. B. Gilbert,  M. Wormit,  
 J. Kussmann,  A. W. Lange,  A. Behn,  Jia Deng,  Xintian Feng,  D. Ghosh,  
 M. Goldey,  P. R. Horn,  L. D. Jacobson,  I. Kaliman,  T. Kus,  A. Landau,  
 Jie Liu,  E. I. Proynov,  R. M. Richard,  R. P. Steele,  E. J. Sundstrom,  
 H. L. Woodcock III,  P. M. Zimmerman,  D. Zuev,  B. Albrecht,  E. Alguire,  
 S. A. Baeppler,  D. Barton,  Z. Benda,  Y. A. Bernard,  E. J. Berquist,  
 K. B. Bravaya,  H. Burton,  D. Casanova,  Chun-Min Chang,  Yunqing Chen,  
 A. Chien,  K. D. Closser,  M. P. Coons,  S. Coriani,  S. Dasgupta,  
 A. L. Dempwolff,  M. Diedenhofen,  Hainam Do,  R. G. Edgar,  Po-Tung Fang,  
 S. Faraji,  S. Fatehi,  Qingguo Feng,  K. D. Fenk,  J. Fosso-Tande,  
 Qinghui Ge,  A. Ghysels,  G. Gidofalvi,  J. Gomes,  J. Gonthier,  A. Gunina,  
 D. Hait,  M. W. D. Hanson-Heine,  P. H. P. Harbach,  A. W. Hauser,  
 J. E. Herr,  E. G. Hohenstein,  Z. C. Holden,  Kerwin Hui,  B. C. Huynh,  
 T.-C. Jagau,  Hyunjun Ji,  B. Kaduk,  K. Khistyaev,  Jaehoon Kim,  
 P. Klunzinger,  K. Koh,  D. Kosenkov,  L. Koulias,  T. Kowalczyk,  
 C. M. Krauter,  A. Kunitsa,  Ka Un Lao,  A. Laurent,  K. V. Lawler,  
 Joonho Lee,  D. Lefrancois,  S. Lehtola,  D. S. Levine,  Yi-Pei Li,  
 You-Sheng Lin,  Fenglai Liu,  E. Livshits,  A. Luenser,  P. Manohar,  
 E. Mansoor,  S. F. Manzer,  Shan-Ping Mao,  Yuezhi Mao,  N. Mardirossian,  
 A. V. Marenich,  T. Markovich,  L. A. Martinez-Martinez,  S. A. Maurer,  
 N. J. Mayhall,  S. C. McKenzie,  J.-M. Mewes,  A. F. Morrison,  
 J. W. Mullinax,  K. Nanda,  T. S. Nguyen-Beck,  R. Olivares-Amaya,  
 J. A. Parkhill,  T. M. Perrine,  F. Plasser,  P. Pokhilko,  S. Prager,  
 A. Prociuk,  E. Ramos,  D. R. Rehn,  F. Rob,  M. Schneider,  N. Sergueev,  
 S. M. Sharada,  S. Sharma,  D. W. Small,  T. Stauch,  T. Stein,  
 Yu-Chuan Su,  A. J. W. Thom,  A. Tkatchenko,  T. Tsuchimochi,  N. M. Tubman,  
 L. Vogt,  M. L. Vidal,  O. Vydrov,  M. A. Watson,  J. Wenzel,  
 M. de Wergifosse,  T. A. Wesolowski,  A. White,  J. Witte,  A. Yamada,  
 Jun Yang,  K. Yao,  S. Yeganeh,  S. R. Yost,  Zhi-Qiang You,  A. Zech,  
 Igor Ying Zhang,  Xing Zhang,  Yan Zhao,  Ying Zhu,  B. R. Brooks,  
 G. K. L. Chan,  C. J. Cramer,  M. S. Gordon,  W. J. Hehre,  A. Klamt,  
 M. W. Schmidt,  C. D. Sherrill,  D. G. Truhlar,  A. Aspuru-Guzik,  R. Baer,  
 A. T. Bell,  N. A. Besley,  Jeng-Da Chai,  A. E. DePrince, III,  
 R. A. DiStasio Jr.,  A. Dreuw,  B. D. Dunietz,  T. R. Furlani,  
 Chao-Ping Hsu,  Yousung Jung,  Jing Kong,  D. S. Lambrecht,  WanZhen Liang,  
 C. Ochsenfeld,  V. A. Rassolov,  L. V. Slipchenko,  J. E. Subotnik,  
 T. Van Voorhis,  J. M. Herbert,  A. I. Krylov,  P. M. W. Gill,  M. Head-Gordon

 Contributors to earlier versions of Q-Chem not listed above: 
 R. D. Adamson,  B. Austin,  J. Baker,  G. J. O. Beran,  K. Brandhorst,  
 S. T. Brown,  E. F. C. Byrd,  A. K. Chakraborty,  C.-L. Cheng,  
 Siu Hung Chien,  D. M. Chipman,  D. L. Crittenden,  H. Dachsel,  
 R. J. Doerksen,  A. D. Dutoi,  L. Fusti-Molnar,  W. A. Goddard III,  
 A. Golubeva-Zadorozhnaya,  S. R. Gwaltney,  G. Hawkins,  A. Heyden,  
 S. Hirata,  G. Kedziora,  F. J. Keil,  C. Kelley,  Jihan Kim,  R. A. King,  
 R. Z. Khaliullin,  P. P. Korambath,  W. Kurlancheek,  A. M. Lee,  M. S. Lee,  
 S. V. Levchenko,  Ching Yeh Lin,  D. Liotard,  R. C. Lochan,  I. Lotan,  
 P. E. Maslen,  N. Nair,  D. P. O'Neill,  D. Neuhauser,  E. Neuscamman,  
 C. M. Oana,  R. Olson,  B. Peters,  R. Peverati,  P. A. Pieniazek,  
 Y. M. Rhee,  J. Ritchie,  M. A. Rohrdanz,  E. Rosta,  N. J. Russ,  
 H. F. Schaefer III,  N. E. Schultz,  N. Shenvi,  A. C. Simmonett,  A. Sodt,  
 D. Stuck,  K. S. Thanthiriwatte,  V. Vanovschi,  Tao Wang,  A. Warshel,  
 C. F. Williams,  Q. Wu,  X. Xu,  W. Zhang

 Please cite Q-Chem as follows:
 Y. Shao et al., Mol. Phys. 113, 184-215 (2015)
 DOI: 10.1080/00268976.2014.952696

 Q-Chem 5.1.1 for Intel X86 EM64T Linux

 Parts of Q-Chem use Armadillo 8.300.2 (Tropical Shenanigans).
 http://arma.sourceforge.net/

 Q-Chem begins on Fri Nov  6 12:54:53 2020  

Host: n0089.mhg0
0

     Scratch files written to /local/scratch/users/yhljason/LiH_wB97M2_aug-cc-pcV5Z.inp20201106123942//
The previous job contains 0 fragments, simply inherited here
Input Ideriv = 0
Curr. Ideriv = -1
Max.  Ideriv = 0
Analytic post-HF gradients are not available with non-HF exchange
Input Ideriv = 0
Curr. Ideriv = 0
Max.  Ideriv = 0

Checking the input file for inconsistencies... 	...done.

--------------------------------------------------------------
User input:
--------------------------------------------------------------
$molecule
read
$end

$rem

jobtype sp
exchange wb97m(2)
xc_grid 000099000590
basis gen
max_scf_cycles 200
thresh 14
scf_convergence 8
mem_total 128000
cc_memory 96000
cc_backend xm
mem_static 1500
symmetry false
sym_ignore true
scf_guess read
unrestricted false
scf_algorithm gdm
n_frozen_core 500
$end

$multipole_field
Z 0.0001
$end

$basis
****
H
aug-cc-pcV5Z
****
Li     0
S   14   1.00
  29493.0000000              1.8000000e-05
   4417.1010000              1.4100000e-04
   1005.2230000              7.3900000e-04
    284.7009000              3.1070000e-03
     92.8654300              1.1135000e-02
     33.5117900              3.4670000e-02
     13.0418000              9.2171000e-02
      5.3575360              1.9957600e-01
      2.2793380              3.2883600e-01
      0.9939900              3.4597500e-01
      0.4334710              1.4276100e-01
      0.0955660              5.3190000e-03
      0.0446570             -2.1010000e-03
      0.0206330              8.1500000e-04
S   14   1.00
  29493.0000000             -3.0000000e-06
   4417.1010000             -2.2000000e-05
   1005.2230000             -1.1500000e-04
    284.7009000             -4.8700000e-04
     92.8654300             -1.7460000e-03
     33.5117900             -5.5200000e-03
     13.0418000             -1.4928000e-02
      5.3575360             -3.4206000e-02
      2.2793380             -6.2155000e-02
      0.9939900             -9.5902000e-02
      0.4334710             -1.0397200e-01
      0.0955660              3.0715100e-01
      0.0446570              5.7902800e-01
      0.0206330              2.2323100e-01
S   1   1.00
      0.4334710              1.0000000e+00
S   1   1.00
      0.0955660              1.0000000e+00
S   1   1.00
      0.0446570              1.0000000e+00
S   1   1.00
      0.0206330              1.0000000e+00
P   8   1.00
     19.6635000              5.4000000e-04
      4.6231100              3.8650000e-03
      1.4137800              1.5171000e-02
      0.4737210              4.9204000e-02
      0.1761510              1.5466100e-01
      0.0726750              3.6009500e-01
      0.0321410              4.4185200e-01
      0.0145560              1.5600000e-01
P   1   1.00
      0.1761510              1.0000000e+00
P   1   1.00
      0.0726750              1.0000000e+00
P   1   1.00
      0.0321410              1.0000000e+00
P   1   1.00
      0.0145560              1.0000000e+00
D   1   1.00
      0.5310000              1.0000000e+00
D   1   1.00
      0.2481000              1.0000000e+00
D   1   1.00
      0.1159000              1.0000000e+00
D   1   1.00
      0.0542000              1.0000000e+00
F   1   1.00
      0.2920000              1.0000000e+00
F   1   1.00
      0.1641000              1.0000000e+00
F   1   1.00
      0.0922000              1.0000000e+00
G   1   1.00
      0.2971000              1.0000000e+00
G   1   1.00
      0.1500000              1.0000000e+00
H   1   1.00
      0.2949000              1.0000000e+00
S   1   1.00
     27.8558000              1.0000000
S   1   1.00
     12.5082000              1.0000000
S   1   1.00
      5.6166000              1.0000000
S   1   1.00
      2.5221000              1.0000000
P   1   1.00
     29.2095000              1.0000000
P   1   1.00
     11.1763000              1.0000000
P   1   1.00
      4.2763000              1.0000000
P   1   1.00
      1.6362000              1.0000000
D   1   1.00
     19.8455000              1.0000000
D   1   1.00
      7.1492000              1.0000000
D   1   1.00
      2.5754000              1.0000000
F   1   1.00
     13.2502000              1.0000000
F   1   1.00
      4.1991000              1.0000000
G   1   1.00
      8.4093000              1.0000000
S   1   1.00
      0.0061000              1.0000000
P   1   1.00
      0.0065000              1.0000000
D   1   1.00
      0.0235000              1.0000000
F   1   1.00
      0.0448000              1.0000000
G   1   1.00
      0.0724000              1.0000000
H   1   1.00
      0.1274000              1.0000000
****
$end

--------------------------------------------------------------
 ----------------------------------------------------------------
             Standard Nuclear Orientation (Angstroms)
    I     Atom           X                Y                Z
 ----------------------------------------------------------------
    1      Li      0.0000000000     0.0000000000     0.0000000000
    2      H       0.0000000000     0.0000000000     1.5949000000
 ----------------------------------------------------------------
 Nuclear Repulsion Energy =     0.9953800441 hartrees
 There are        2 alpha and        2 beta electrons

 Q-Chem warning in module forms1/BasisType.C, line 1703:

 Setting pure/cartesian flag to 2111 for general basis


 Requested basis set is non-standard
 There are 61 shells and 281 basis functions

 Total QAlloc Memory Limit 128000 MB
 Mega-Array Size      1467 MB
 MEM_STATIC part      1500 MB

                       Distance Matrix (Angstroms)
             Li(  1)
   H (  2)  1.594900
 
 Applying Cartesian multipole field
    Component          Value
    ---------          -----
     (0,0,1)        1.00000E-04
 Nucleus-field energy     =     0.0003013924 hartrees
 A cutoff of  1.0D-14 yielded   1891 shell pairs
 There are     40611 function pairs (     65226 Cartesian)
 
 -------------------------------------------------------
 OpenMP Integral Computing Module                       
 Release: version 1.0, May 2013, Q-Chem Inc. Pittsburgh 
 -------------------------------------------------------
 Integral Job Info:
 Integral job number is                      11
 Integral operator is                         1
 short-range coefficients              15000000
 long-range coefficients              100000000
 Omega coefficients                         300
 if combine SR and LR in K                    1
 Integral screening is                        0
 Integral computing path is                   2
 max size of driver memory is           6400000
 size of driver memory is               5498286
 size of scratch memory is             29330774
 max col of scratch BK array             194481
 max len of scratch array in speh3         5572
 max len of scratch index in speh4           72
 max int batch size is                      520
 min int batch size is                       52
 fixed nKL is                                14
 max L of basis functions is                  5
 order of int derivative is                   0
 number of shells is                         61
 number of basis is                         356
 number of cartesian basis is               356
 number of contracted shell pairs          1891
 number of primitive shell pairs           4858
 maxK2 (contraction) of shell pair          196
 max number of K2 of shell pair               1
 max number of CS2 of shell pair            198
 max number of PS2 of shell pair            588
 mem total for path MDJ                  871004
 -------------------------------------------------------
 Smallest overlap matrix eigenvalue = 4.57E-07
 Linear dependence detected in AO basis
 Number of orthogonalized atomic orbitals = 280
 Maximum deviation from orthogonality = 6.483E-11
 Guess MOs from SCF MO coefficient file
 Reading MOs from coefficient file
 Size of previous SCF MO coefficient file: 157920 (expected); 157922 (actual). 

 Q-Chem warning in module gesman/GuessMan.C, line 748:

 Inconsistent size for SCF MO coefficient file.  Please check basis and PURECART setting.

 Reading MOs from coefficient file
 Long-range K will be added via erf
 Coulomb attenuation parameter = 0.3 bohr**(-1)
 A restricted hybrid HF-DFT SCF calculation will be
 performed using Geometric Direct Minimization
 Exchange:     0.1500 Hartree-Fock + 1.0000 wB97M-V + LR-HF
 Correlation:  1.0000 wB97M-V
 Using Euler-Maclaurin-Lebedev (99,590) quadrature formula
 Nonlocal Correlation:  VV10 with C = 0.0100 and b = 6.00 and scale = 1.00000
 Grid used for NLC:  SG-1 standard quadrature
 SCF converges when RMS gradient is below 1.0E-08
Using Q-Chem read-in guess as SCF_GUESS READ specified.

 using 16 threads for integral computing
 -------------------------------------------------------
 OpenMP Integral computing Module                
 Release: version 1.0, May 2013, Q-Chem Inc. Pittsburgh 
 -------------------------------------------------------
 using 16 threads for integral computing
 -------------------------------------------------------
 OpenMP Integral computing Module                
 Release: version 1.0, May 2013, Q-Chem Inc. Pittsburgh 
 -------------------------------------------------------
TIMEINFO->: J/JK contribution 459.84 sec.
 -------------------------------------------------------
 OpenMP BLAS3 based DFT computing Module                
 Release: version 1.0, May 2013, Q-Chem Inc. Pittsburgh 
 -------------------------------------------------------
 -------------------------------------------------------
 OpenMP BLAS3 based DFT computing Module                
 Release: version 1.0, May 2013, Q-Chem Inc. Pittsburgh 
 -------------------------------------------------------
 -------------------------------------------------------
 OpenMP BLAS3 based DFT computing Module                
 Release: version 1.0, May 2013, Q-Chem Inc. Pittsburgh 
 -------------------------------------------------------
 ---------------------------------------
  Cycle       Energy        RMS Gradient
 ---------------------------------------
    1      -8.0638159306      1.25E-10 Normal BFGS step
TIMEINFO->: J/JK contribution 460.79 sec.
   GDM::WARNING energy changes are now smaller than effective accuracy.
   GDM::        calculation will continue, but THRESH should be increased
   GDM::        or SCF_CONVERGENCE decreased.
   GDM::        effective_thresh =   2.000000000000000E-011
 Nonlocal correlation =     0.0056049254
    2      -8.0638159306      3.61E-11 Convergence criterion met
 ---------------------------------------
 wB97M-V orbitals are now ready for the wB97M(2) calculation.
 wB97M(2) energy = Exch (0.62194 SRHF + 1.0 LRHF + wB97M(2)_EXCH) + 
               Corr (wB97M(2)_CORR + 0.34096 MP2 + 0.65904 VV10(b=10))
 SCF time:  CPU 1836.86 s  wall 126.41 s
 SCF   energy in the final basis set = -8.05224479
 Total energy in the final basis set = -8.05224479

 Q-Chem fatal error occurred in module libmdc/qalloc.C, line 49:

 Illegal memory length in mega_alloc


 Please submit a crash report at q-chem.com/reporter 
 
 
 
User input: 5 of 6 
 
Q-Chem Developer Version!
                  Welcome to Q-Chem
     A Quantum Leap Into The Future Of Chemistry


 Q-Chem 5.1, Q-Chem, Inc., Pleasanton, CA (2018)

 Yihan Shao,  Zhengting Gan,  E. Epifanovsky,  A. T. B. Gilbert,  M. Wormit,  
 J. Kussmann,  A. W. Lange,  A. Behn,  Jia Deng,  Xintian Feng,  D. Ghosh,  
 M. Goldey,  P. R. Horn,  L. D. Jacobson,  I. Kaliman,  T. Kus,  A. Landau,  
 Jie Liu,  E. I. Proynov,  R. M. Richard,  R. P. Steele,  E. J. Sundstrom,  
 H. L. Woodcock III,  P. M. Zimmerman,  D. Zuev,  B. Albrecht,  E. Alguire,  
 S. A. Baeppler,  D. Barton,  Z. Benda,  Y. A. Bernard,  E. J. Berquist,  
 K. B. Bravaya,  H. Burton,  D. Casanova,  Chun-Min Chang,  Yunqing Chen,  
 A. Chien,  K. D. Closser,  M. P. Coons,  S. Coriani,  S. Dasgupta,  
 A. L. Dempwolff,  M. Diedenhofen,  Hainam Do,  R. G. Edgar,  Po-Tung Fang,  
 S. Faraji,  S. Fatehi,  Qingguo Feng,  K. D. Fenk,  J. Fosso-Tande,  
 Qinghui Ge,  A. Ghysels,  G. Gidofalvi,  J. Gomes,  J. Gonthier,  A. Gunina,  
 D. Hait,  M. W. D. Hanson-Heine,  P. H. P. Harbach,  A. W. Hauser,  
 J. E. Herr,  E. G. Hohenstein,  Z. C. Holden,  Kerwin Hui,  B. C. Huynh,  
 T.-C. Jagau,  Hyunjun Ji,  B. Kaduk,  K. Khistyaev,  Jaehoon Kim,  
 P. Klunzinger,  K. Koh,  D. Kosenkov,  L. Koulias,  T. Kowalczyk,  
 C. M. Krauter,  A. Kunitsa,  Ka Un Lao,  A. Laurent,  K. V. Lawler,  
 Joonho Lee,  D. Lefrancois,  S. Lehtola,  D. S. Levine,  Yi-Pei Li,  
 You-Sheng Lin,  Fenglai Liu,  E. Livshits,  A. Luenser,  P. Manohar,  
 E. Mansoor,  S. F. Manzer,  Shan-Ping Mao,  Yuezhi Mao,  N. Mardirossian,  
 A. V. Marenich,  T. Markovich,  L. A. Martinez-Martinez,  S. A. Maurer,  
 N. J. Mayhall,  S. C. McKenzie,  J.-M. Mewes,  A. F. Morrison,  
 J. W. Mullinax,  K. Nanda,  T. S. Nguyen-Beck,  R. Olivares-Amaya,  
 J. A. Parkhill,  T. M. Perrine,  F. Plasser,  P. Pokhilko,  S. Prager,  
 A. Prociuk,  E. Ramos,  D. R. Rehn,  F. Rob,  M. Schneider,  N. Sergueev,  
 S. M. Sharada,  S. Sharma,  D. W. Small,  T. Stauch,  T. Stein,  
 Yu-Chuan Su,  A. J. W. Thom,  A. Tkatchenko,  T. Tsuchimochi,  N. M. Tubman,  
 L. Vogt,  M. L. Vidal,  O. Vydrov,  M. A. Watson,  J. Wenzel,  
 M. de Wergifosse,  T. A. Wesolowski,  A. White,  J. Witte,  A. Yamada,  
 Jun Yang,  K. Yao,  S. Yeganeh,  S. R. Yost,  Zhi-Qiang You,  A. Zech,  
 Igor Ying Zhang,  Xing Zhang,  Yan Zhao,  Ying Zhu,  B. R. Brooks,  
 G. K. L. Chan,  C. J. Cramer,  M. S. Gordon,  W. J. Hehre,  A. Klamt,  
 M. W. Schmidt,  C. D. Sherrill,  D. G. Truhlar,  A. Aspuru-Guzik,  R. Baer,  
 A. T. Bell,  N. A. Besley,  Jeng-Da Chai,  A. E. DePrince, III,  
 R. A. DiStasio Jr.,  A. Dreuw,  B. D. Dunietz,  T. R. Furlani,  
 Chao-Ping Hsu,  Yousung Jung,  Jing Kong,  D. S. Lambrecht,  WanZhen Liang,  
 C. Ochsenfeld,  V. A. Rassolov,  L. V. Slipchenko,  J. E. Subotnik,  
 T. Van Voorhis,  J. M. Herbert,  A. I. Krylov,  P. M. W. Gill,  M. Head-Gordon

 Contributors to earlier versions of Q-Chem not listed above: 
 R. D. Adamson,  B. Austin,  J. Baker,  G. J. O. Beran,  K. Brandhorst,  
 S. T. Brown,  E. F. C. Byrd,  A. K. Chakraborty,  C.-L. Cheng,  
 Siu Hung Chien,  D. M. Chipman,  D. L. Crittenden,  H. Dachsel,  
 R. J. Doerksen,  A. D. Dutoi,  L. Fusti-Molnar,  W. A. Goddard III,  
 A. Golubeva-Zadorozhnaya,  S. R. Gwaltney,  G. Hawkins,  A. Heyden,  
 S. Hirata,  G. Kedziora,  F. J. Keil,  C. Kelley,  Jihan Kim,  R. A. King,  
 R. Z. Khaliullin,  P. P. Korambath,  W. Kurlancheek,  A. M. Lee,  M. S. Lee,  
 S. V. Levchenko,  Ching Yeh Lin,  D. Liotard,  R. C. Lochan,  I. Lotan,  
 P. E. Maslen,  N. Nair,  D. P. O'Neill,  D. Neuhauser,  E. Neuscamman,  
 C. M. Oana,  R. Olson,  B. Peters,  R. Peverati,  P. A. Pieniazek,  
 Y. M. Rhee,  J. Ritchie,  M. A. Rohrdanz,  E. Rosta,  N. J. Russ,  
 H. F. Schaefer III,  N. E. Schultz,  N. Shenvi,  A. C. Simmonett,  A. Sodt,  
 D. Stuck,  K. S. Thanthiriwatte,  V. Vanovschi,  Tao Wang,  A. Warshel,  
 C. F. Williams,  Q. Wu,  X. Xu,  W. Zhang

 Please cite Q-Chem as follows:
 Y. Shao et al., Mol. Phys. 113, 184-215 (2015)
 DOI: 10.1080/00268976.2014.952696

 Q-Chem 5.1.1 for Intel X86 EM64T Linux

 Parts of Q-Chem use Armadillo 8.300.2 (Tropical Shenanigans).
 http://arma.sourceforge.net/

 Q-Chem begins on Fri Nov  6 12:57:03 2020  

Host: n0089.mhg0
0

     Scratch files written to /local/scratch/users/yhljason/LiH_wB97M2_aug-cc-pcV5Z.inp20201106123942//
The previous job contains 0 fragments, simply inherited here
Input Ideriv = 2
Curr. Ideriv = -1
Max.  Ideriv = 2
Input Ideriv = 1
Curr. Ideriv = 2
Max.  Ideriv = 1

Checking the input file for inconsistencies... 	...done.

--------------------------------------------------------------
User input:
--------------------------------------------------------------
$molecule
read
$end

$rem

jobtype sp
method wb97m-v
xc_grid 000099000590
basis gen
max_scf_cycles 200
thresh 14
scf_convergence 8
mem_total 128000
cc_memory 96000
cc_backend xm
mem_static 1500
symmetry false
sym_ignore true
scf_guess read
unrestricted false
scf_algorithm gdm
n_frozen_core 500
gen_scfman true
$end

$multipole_field
Z -0.0001
$end

$basis
****
H
aug-cc-pcV5Z
****
Li     0
S   14   1.00
  29493.0000000              1.8000000e-05
   4417.1010000              1.4100000e-04
   1005.2230000              7.3900000e-04
    284.7009000              3.1070000e-03
     92.8654300              1.1135000e-02
     33.5117900              3.4670000e-02
     13.0418000              9.2171000e-02
      5.3575360              1.9957600e-01
      2.2793380              3.2883600e-01
      0.9939900              3.4597500e-01
      0.4334710              1.4276100e-01
      0.0955660              5.3190000e-03
      0.0446570             -2.1010000e-03
      0.0206330              8.1500000e-04
S   14   1.00
  29493.0000000             -3.0000000e-06
   4417.1010000             -2.2000000e-05
   1005.2230000             -1.1500000e-04
    284.7009000             -4.8700000e-04
     92.8654300             -1.7460000e-03
     33.5117900             -5.5200000e-03
     13.0418000             -1.4928000e-02
      5.3575360             -3.4206000e-02
      2.2793380             -6.2155000e-02
      0.9939900             -9.5902000e-02
      0.4334710             -1.0397200e-01
      0.0955660              3.0715100e-01
      0.0446570              5.7902800e-01
      0.0206330              2.2323100e-01
S   1   1.00
      0.4334710              1.0000000e+00
S   1   1.00
      0.0955660              1.0000000e+00
S   1   1.00
      0.0446570              1.0000000e+00
S   1   1.00
      0.0206330              1.0000000e+00
P   8   1.00
     19.6635000              5.4000000e-04
      4.6231100              3.8650000e-03
      1.4137800              1.5171000e-02
      0.4737210              4.9204000e-02
      0.1761510              1.5466100e-01
      0.0726750              3.6009500e-01
      0.0321410              4.4185200e-01
      0.0145560              1.5600000e-01
P   1   1.00
      0.1761510              1.0000000e+00
P   1   1.00
      0.0726750              1.0000000e+00
P   1   1.00
      0.0321410              1.0000000e+00
P   1   1.00
      0.0145560              1.0000000e+00
D   1   1.00
      0.5310000              1.0000000e+00
D   1   1.00
      0.2481000              1.0000000e+00
D   1   1.00
      0.1159000              1.0000000e+00
D   1   1.00
      0.0542000              1.0000000e+00
F   1   1.00
      0.2920000              1.0000000e+00
F   1   1.00
      0.1641000              1.0000000e+00
F   1   1.00
      0.0922000              1.0000000e+00
G   1   1.00
      0.2971000              1.0000000e+00
G   1   1.00
      0.1500000              1.0000000e+00
H   1   1.00
      0.2949000              1.0000000e+00
S   1   1.00
     27.8558000              1.0000000
S   1   1.00
     12.5082000              1.0000000
S   1   1.00
      5.6166000              1.0000000
S   1   1.00
      2.5221000              1.0000000
P   1   1.00
     29.2095000              1.0000000
P   1   1.00
     11.1763000              1.0000000
P   1   1.00
      4.2763000              1.0000000
P   1   1.00
      1.6362000              1.0000000
D   1   1.00
     19.8455000              1.0000000
D   1   1.00
      7.1492000              1.0000000
D   1   1.00
      2.5754000              1.0000000
F   1   1.00
     13.2502000              1.0000000
F   1   1.00
      4.1991000              1.0000000
G   1   1.00
      8.4093000              1.0000000
S   1   1.00
      0.0061000              1.0000000
P   1   1.00
      0.0065000              1.0000000
D   1   1.00
      0.0235000              1.0000000
F   1   1.00
      0.0448000              1.0000000
G   1   1.00
      0.0724000              1.0000000
H   1   1.00
      0.1274000              1.0000000
****
$end

--------------------------------------------------------------
 ----------------------------------------------------------------
             Standard Nuclear Orientation (Angstroms)
    I     Atom           X                Y                Z
 ----------------------------------------------------------------
    1      Li      0.0000000000     0.0000000000     0.0000000000
    2      H       0.0000000000     0.0000000000     1.5949000000
 ----------------------------------------------------------------
 Nuclear Repulsion Energy =     0.9953800441 hartrees
 There are        2 alpha and        2 beta electrons

 Q-Chem warning in module forms1/BasisType.C, line 1703:

 Setting pure/cartesian flag to 2111 for general basis


 Requested basis set is non-standard
 There are 61 shells and 281 basis functions

[...]
 Total energy in the final basis set =       -8.0633633479
 
 --------------------------------------------------------------
 
                    Orbital Energies (a.u.)
 --------------------------------------------------------------
 
 Alpha MOs
 -- Occupied --
 -2.123  -0.282
 -- Virtual --
 -0.023   0.006   0.006   0.009   0.016   0.026   0.026   0.040
  0.055   0.055   0.058   0.059   0.059   0.065   0.080   0.080
  0.096   0.130   0.130   0.133   0.133   0.133   0.133   0.134
  0.166   0.178   0.178   0.182   0.183   0.183   0.190   0.190
  0.229   0.291   0.293   0.293   0.311   0.311   0.315   0.315
  0.317   0.319   0.319   0.328   0.328   0.338   0.338   0.344
  0.344   0.354   0.363   0.363   0.380   0.442   0.442   0.445
  0.445   0.472   0.491   0.491   0.523   0.602   0.626   0.626
  0.631   0.631   0.635   0.635   0.655   0.687   0.687   0.706
  0.706   0.707   0.707   0.708   0.708   0.714   0.714   0.740
  0.763   0.763   0.781   0.781   0.800   0.822   0.822   0.832
  0.832   0.885   0.920   0.920   0.929   0.929   0.958   0.967
  0.967   1.025   1.025   1.030   1.030   1.045   1.058   1.087
  1.087   1.088   1.088   1.100   1.100   1.274   1.337   1.337
  1.500   1.500   1.577   1.584   1.584   1.600   1.632   1.632
  1.692   1.692   1.720   1.819   1.819   1.835   1.839   1.839
  1.841   1.841   1.867   1.867   1.880   1.880   1.900   1.900
  1.924   1.924   1.949   1.949   1.950   1.959   1.959   1.983
  1.983   1.989   1.989   2.026   2.026   2.163   2.333   2.384
  2.384   2.519   2.519   2.641   2.642   2.642   2.720   2.720
  2.771   2.856   2.856   2.968   2.996   2.996   3.038   3.038
  3.056   3.056   3.074   3.074   3.113   3.196   3.196   3.449
  3.449   3.464   3.652   3.652   4.022   4.022   4.034   4.221
  4.221   4.451   4.476   4.476   4.680   4.680   4.786   5.547
  5.547   5.766   5.766   5.844   6.020   6.020   6.047   6.391
  6.391   6.747   8.329   8.329   8.591   8.591   8.756  11.156
 12.367  12.367  12.475  12.476  12.546  12.546  12.566  12.566
 12.692  12.707  12.707  12.807  12.807  12.890  12.890  13.097
 13.460  13.731  13.731  14.024  14.076  14.076  14.205  14.205
 14.473  16.706  16.706  16.803  16.803  16.812  16.812  16.860
 16.860  16.966  17.201  27.042  27.219  27.225  27.392  27.392
 28.881  37.845  37.845  38.062  43.765  43.766  43.766  43.768
 43.769  43.770  43.774  43.774  43.782  59.686  62.938  62.938
 62.939  62.939  62.959  62.959  63.211  84.223  84.233  84.345
 84.345  84.604  99.356 107.500 107.500 107.888
 --------------------------------------------------------------
 
          Ground-State Mulliken Net Atomic Charges

     Atom                 Charge (a.u.)
  ----------------------------------------
      1 Li                   -0.737141
      2 H                     0.737141
  ----------------------------------------
  Sum of atomic charges =    -0.000000

 -----------------------------------------------------------------
                    Cartesian Multipole Moments
 -----------------------------------------------------------------
    Charge (ESU x 10^10)
                 0.0000
    Dipole Moment (Debye)
         X      -0.0000      Y      -0.0000      Z      -5.7446
       Tot       5.7446
    Quadrupole Moments (Debye-Ang)
        XX      -5.5546     XY       0.0000     YY      -5.5546
        XZ      -0.0000     YZ      -0.0000     ZZ     -11.9317
    Octopole Moments (Debye-Ang^2)
       XXX      -0.0000    XXY      -0.0000    XYY      -0.0000
       YYY      -0.0000    XXZ      -6.4249    XYZ      -0.0000
       YYZ      -6.4249    XZZ      -0.0000    YZZ      -0.0000
       ZZZ     -26.4767
    Hexadecapole Moments (Debye-Ang^3)
      XXXX     -13.5581   XXXY       0.0000   XXYY      -4.5194
      XYYY       0.0000   YYYY     -13.5581   XXXZ      -0.0000
      XXYZ      -0.0000   XYYZ      -0.0000   YYYZ      -0.0000
      XXZZ     -12.6082   XYZZ      -0.0000   YYZZ     -12.6082
      XZZZ       0.0000   YZZZ      -0.0000   ZZZZ     -70.4951
 -----------------------------------------------------------------
Archival summary:
1\1\n0089.mhg0\SP\ProcedureUnspecified\BasisUnspecified\i11\yhljason\FriNov613:02:072020FriNov613:02:072020\0\\#,ProcedureUnspecified,BasisUnspecified,\\0,1\Li\H,1,1.5949\\\@

 Total job time:  304.34s(wall), 4414.61s(cpu) 
 Fri Nov  6 13:02:07 2020

        *************************************************************
        *                                                           *
        *  Thank you very much for using Q-Chem.  Have a nice day.  *
        *                                                           *
        *************************************************************


 
User input: 6 of 6 
 
Q-Chem Developer Version!
                  Welcome to Q-Chem
     A Quantum Leap Into The Future Of Chemistry


 Q-Chem 5.1, Q-Chem, Inc., Pleasanton, CA (2018)

 Yihan Shao,  Zhengting Gan,  E. Epifanovsky,  A. T. B. Gilbert,  M. Wormit,  
 J. Kussmann,  A. W. Lange,  A. Behn,  Jia Deng,  Xintian Feng,  D. Ghosh,  
 M. Goldey,  P. R. Horn,  L. D. Jacobson,  I. Kaliman,  T. Kus,  A. Landau,  
 Jie Liu,  E. I. Proynov,  R. M. Richard,  R. P. Steele,  E. J. Sundstrom,  
 H. L. Woodcock III,  P. M. Zimmerman,  D. Zuev,  B. Albrecht,  E. Alguire,  
 S. A. Baeppler,  D. Barton,  Z. Benda,  Y. A. Bernard,  E. J. Berquist,  
 K. B. Bravaya,  H. Burton,  D. Casanova,  Chun-Min Chang,  Yunqing Chen,  
 A. Chien,  K. D. Closser,  M. P. Coons,  S. Coriani,  S. Dasgupta,  
 A. L. Dempwolff,  M. Diedenhofen,  Hainam Do,  R. G. Edgar,  Po-Tung Fang,  
 S. Faraji,  S. Fatehi,  Qingguo Feng,  K. D. Fenk,  J. Fosso-Tande,  
 Qinghui Ge,  A. Ghysels,  G. Gidofalvi,  J. Gomes,  J. Gonthier,  A. Gunina,  
 D. Hait,  M. W. D. Hanson-Heine,  P. H. P. Harbach,  A. W. Hauser,  
 J. E. Herr,  E. G. Hohenstein,  Z. C. Holden,  Kerwin Hui,  B. C. Huynh,  
 T.-C. Jagau,  Hyunjun Ji,  B. Kaduk,  K. Khistyaev,  Jaehoon Kim,  
 P. Klunzinger,  K. Koh,  D. Kosenkov,  L. Koulias,  T. Kowalczyk,  
 C. M. Krauter,  A. Kunitsa,  Ka Un Lao,  A. Laurent,  K. V. Lawler,  
 Joonho Lee,  D. Lefrancois,  S. Lehtola,  D. S. Levine,  Yi-Pei Li,  
 You-Sheng Lin,  Fenglai Liu,  E. Livshits,  A. Luenser,  P. Manohar,  
 E. Mansoor,  S. F. Manzer,  Shan-Ping Mao,  Yuezhi Mao,  N. Mardirossian,  
 A. V. Marenich,  T. Markovich,  L. A. Martinez-Martinez,  S. A. Maurer,  
 N. J. Mayhall,  S. C. McKenzie,  J.-M. Mewes,  A. F. Morrison,  
 J. W. Mullinax,  K. Nanda,  T. S. Nguyen-Beck,  R. Olivares-Amaya,  
 J. A. Parkhill,  T. M. Perrine,  F. Plasser,  P. Pokhilko,  S. Prager,  
 A. Prociuk,  E. Ramos,  D. R. Rehn,  F. Rob,  M. Schneider,  N. Sergueev,  
 S. M. Sharada,  S. Sharma,  D. W. Small,  T. Stauch,  T. Stein,  
 Yu-Chuan Su,  A. J. W. Thom,  A. Tkatchenko,  T. Tsuchimochi,  N. M. Tubman,  
 L. Vogt,  M. L. Vidal,  O. Vydrov,  M. A. Watson,  J. Wenzel,  
 M. de Wergifosse,  T. A. Wesolowski,  A. White,  J. Witte,  A. Yamada,  
 Jun Yang,  K. Yao,  S. Yeganeh,  S. R. Yost,  Zhi-Qiang You,  A. Zech,  
 Igor Ying Zhang,  Xing Zhang,  Yan Zhao,  Ying Zhu,  B. R. Brooks,  
 G. K. L. Chan,  C. J. Cramer,  M. S. Gordon,  W. J. Hehre,  A. Klamt,  
 M. W. Schmidt,  C. D. Sherrill,  D. G. Truhlar,  A. Aspuru-Guzik,  R. Baer,  
 A. T. Bell,  N. A. Besley,  Jeng-Da Chai,  A. E. DePrince, III,  
 R. A. DiStasio Jr.,  A. Dreuw,  B. D. Dunietz,  T. R. Furlani,  
 Chao-Ping Hsu,  Yousung Jung,  Jing Kong,  D. S. Lambrecht,  WanZhen Liang,  
 C. Ochsenfeld,  V. A. Rassolov,  L. V. Slipchenko,  J. E. Subotnik,  
 T. Van Voorhis,  J. M. Herbert,  A. I. Krylov,  P. M. W. Gill,  M. Head-Gordon

 Contributors to earlier versions of Q-Chem not listed above: 
 R. D. Adamson,  B. Austin,  J. Baker,  G. J. O. Beran,  K. Brandhorst,  
 S. T. Brown,  E. F. C. Byrd,  A. K. Chakraborty,  C.-L. Cheng,  
 Siu Hung Chien,  D. M. Chipman,  D. L. Crittenden,  H. Dachsel,  
 R. J. Doerksen,  A. D. Dutoi,  L. Fusti-Molnar,  W. A. Goddard III,  
 A. Golubeva-Zadorozhnaya,  S. R. Gwaltney,  G. Hawkins,  A. Heyden,  
 S. Hirata,  G. Kedziora,  F. J. Keil,  C. Kelley,  Jihan Kim,  R. A. King,  
 R. Z. Khaliullin,  P. P. Korambath,  W. Kurlancheek,  A. M. Lee,  M. S. Lee,  
 S. V. Levchenko,  Ching Yeh Lin,  D. Liotard,  R. C. Lochan,  I. Lotan,  
 P. E. Maslen,  N. Nair,  D. P. O'Neill,  D. Neuhauser,  E. Neuscamman,  
 C. M. Oana,  R. Olson,  B. Peters,  R. Peverati,  P. A. Pieniazek,  
 Y. M. Rhee,  J. Ritchie,  M. A. Rohrdanz,  E. Rosta,  N. J. Russ,  
 H. F. Schaefer III,  N. E. Schultz,  N. Shenvi,  A. C. Simmonett,  A. Sodt,  
 D. Stuck,  K. S. Thanthiriwatte,  V. Vanovschi,  Tao Wang,  A. Warshel,  
 C. F. Williams,  Q. Wu,  X. Xu,  W. Zhang

 Please cite Q-Chem as follows:
 Y. Shao et al., Mol. Phys. 113, 184-215 (2015)
 DOI: 10.1080/00268976.2014.952696

 Q-Chem 5.1.1 for Intel X86 EM64T Linux

 Parts of Q-Chem use Armadillo 8.300.2 (Tropical Shenanigans).
 http://arma.sourceforge.net/

 Q-Chem begins on Fri Nov  6 13:02:08 2020  

Host: n0089.mhg0
0

     Scratch files written to /local/scratch/users/yhljason/LiH_wB97M2_aug-cc-pcV5Z.inp20201106123942//
The previous job contains 0 fragments, simply inherited here
Input Ideriv = 0
Curr. Ideriv = -1
Max.  Ideriv = 0
Analytic post-HF gradients are not available with non-HF exchange
Input Ideriv = 0
Curr. Ideriv = 0
Max.  Ideriv = 0

Checking the input file for inconsistencies... 	...done.

--------------------------------------------------------------
User input:
--------------------------------------------------------------
$molecule
read
$end

$rem

jobtype sp
exchange wb97m(2)
xc_grid 000099000590
basis gen
max_scf_cycles 200
thresh 14
scf_convergence 8
mem_total 128000
cc_memory 96000
cc_backend xm
mem_static 1500
symmetry false
sym_ignore true
scf_guess read
unrestricted false
scf_algorithm gdm
n_frozen_core 500
$end

$multipole_field
Z -0.0001
$end

$basis
****
H
aug-cc-pcV5Z
****
Li     0
S   14   1.00
  29493.0000000              1.8000000e-05
   4417.1010000              1.4100000e-04
   1005.2230000              7.3900000e-04
    284.7009000              3.1070000e-03
     92.8654300              1.1135000e-02
     33.5117900              3.4670000e-02
     13.0418000              9.2171000e-02
      5.3575360              1.9957600e-01
      2.2793380              3.2883600e-01
      0.9939900              3.4597500e-01
      0.4334710              1.4276100e-01
      0.0955660              5.3190000e-03
      0.0446570             -2.1010000e-03
      0.0206330              8.1500000e-04
S   14   1.00
  29493.0000000             -3.0000000e-06
   4417.1010000             -2.2000000e-05
   1005.2230000             -1.1500000e-04
    284.7009000             -4.8700000e-04
     92.8654300             -1.7460000e-03
     33.5117900             -5.5200000e-03
     13.0418000             -1.4928000e-02
      5.3575360             -3.4206000e-02
      2.2793380             -6.2155000e-02
      0.9939900             -9.5902000e-02
      0.4334710             -1.0397200e-01
      0.0955660              3.0715100e-01
      0.0446570              5.7902800e-01
      0.0206330              2.2323100e-01
S   1   1.00
      0.4334710              1.0000000e+00
S   1   1.00
      0.0955660              1.0000000e+00
S   1   1.00
      0.0446570              1.0000000e+00
S   1   1.00
      0.0206330              1.0000000e+00
P   8   1.00
     19.6635000              5.4000000e-04
      4.6231100              3.8650000e-03
      1.4137800              1.5171000e-02
      0.4737210              4.9204000e-02
      0.1761510              1.5466100e-01
      0.0726750              3.6009500e-01
      0.0321410              4.4185200e-01
      0.0145560              1.5600000e-01
P   1   1.00
      0.1761510              1.0000000e+00
P   1   1.00
      0.0726750              1.0000000e+00
P   1   1.00
      0.0321410              1.0000000e+00
P   1   1.00
      0.0145560              1.0000000e+00
D   1   1.00
      0.5310000              1.0000000e+00
D   1   1.00
      0.2481000              1.0000000e+00
D   1   1.00
      0.1159000              1.0000000e+00
D   1   1.00
      0.0542000              1.0000000e+00
F   1   1.00
      0.2920000              1.0000000e+00
F   1   1.00
      0.1641000              1.0000000e+00
F   1   1.00
      0.0922000              1.0000000e+00
G   1   1.00
      0.2971000              1.0000000e+00
G   1   1.00
      0.1500000              1.0000000e+00
H   1   1.00
      0.2949000              1.0000000e+00
S   1   1.00
     27.8558000              1.0000000
S   1   1.00
     12.5082000              1.0000000
S   1   1.00
      5.6166000              1.0000000
S   1   1.00
      2.5221000              1.0000000
P   1   1.00
     29.2095000              1.0000000
P   1   1.00
     11.1763000              1.0000000
P   1   1.00
      4.2763000              1.0000000
P   1   1.00
      1.6362000              1.0000000
D   1   1.00
     19.8455000              1.0000000
D   1   1.00
      7.1492000              1.0000000
D   1   1.00
      2.5754000              1.0000000
F   1   1.00
     13.2502000              1.0000000
F   1   1.00
      4.1991000              1.0000000
G   1   1.00
      8.4093000              1.0000000
S   1   1.00
      0.0061000              1.0000000
P   1   1.00
      0.0065000              1.0000000
D   1   1.00
      0.0235000              1.0000000
F   1   1.00
      0.0448000              1.0000000
G   1   1.00
      0.0724000              1.0000000
H   1   1.00
      0.1274000              1.0000000
****
$end
--------------------------------------------------------------
 ----------------------------------------------------------------
             Standard Nuclear Orientation (Angstroms)
    I     Atom           X                Y                Z
 ----------------------------------------------------------------
    1      Li      0.0000000000     0.0000000000     0.0000000000
    2      H       0.0000000000     0.0000000000     1.5949000000
 ----------------------------------------------------------------
 Nuclear Repulsion Energy =     0.9953800441 hartrees
 There are        2 alpha and        2 beta electrons

 Q-Chem warning in module forms1/BasisType.C, line 1703:

 Setting pure/cartesian flag to 2111 for general basis


 Requested basis set is non-standard
 There are 61 shells and 281 basis functions

 Total QAlloc Memory Limit 128000 MB
 Mega-Array Size      1467 MB
 MEM_STATIC part      1500 MB

                       Distance Matrix (Angstroms)
             Li(  1)
   H (  2)  1.594900
 
 Applying Cartesian multipole field
    Component          Value
    ---------          -----
     (0,0,1)       -1.00000E-04
 Nucleus-field energy     =    -0.0003013924 hartrees
 A cutoff of  1.0D-14 yielded   1891 shell pairs
 There are     40611 function pairs (     65226 Cartesian)
 
 -------------------------------------------------------
 OpenMP Integral Computing Module                       
 Release: version 1.0, May 2013, Q-Chem Inc. Pittsburgh 
 -------------------------------------------------------
 Integral Job Info:
 Integral job number is                      11
 Integral operator is                         1
 short-range coefficients              15000000
 long-range coefficients              100000000
 Omega coefficients                         300
 if combine SR and LR in K                    1
 Integral screening is                        0
 Integral computing path is                   2
 max size of driver memory is           6400000
 size of driver memory is               5498286
 size of scratch memory is             29330774
 max col of scratch BK array             194481
 max len of scratch array in speh3         5572
 max len of scratch index in speh4           72
 max int batch size is                      520
 min int batch size is                       52
 fixed nKL is                                14
 max L of basis functions is                  5
 order of int derivative is                   0
 number of shells is                         61
 number of basis is                         356
 number of cartesian basis is               356
 number of contracted shell pairs          1891
 number of primitive shell pairs           4858
 maxK2 (contraction) of shell pair          196
 max number of K2 of shell pair               1
 max number of CS2 of shell pair            198
 max number of PS2 of shell pair            588
 mem total for path MDJ                  871004
 -------------------------------------------------------
 Smallest overlap matrix eigenvalue = 4.57E-07
 Linear dependence detected in AO basis
 Number of orthogonalized atomic orbitals = 280
 Maximum deviation from orthogonality = 6.483E-11
 Guess MOs from SCF MO coefficient file
 Reading MOs from coefficient file
 Size of previous SCF MO coefficient file: 157920 (expected); 157922 (actual). 

 Q-Chem warning in module gesman/GuessMan.C, line 748:

 Inconsistent size for SCF MO coefficient file.  Please check basis and PURECART setting.

 Reading MOs from coefficient file
 Long-range K will be added via erf
 Coulomb attenuation parameter = 0.3 bohr**(-1)
 A restricted hybrid HF-DFT SCF calculation will be
 performed using Geometric Direct Minimization
 Exchange:     0.1500 Hartree-Fock + 1.0000 wB97M-V + LR-HF
 Correlation:  1.0000 wB97M-V
 Using Euler-Maclaurin-Lebedev (99,590) quadrature formula
 Nonlocal Correlation:  VV10 with C = 0.0100 and b = 6.00 and scale = 1.00000
 Grid used for NLC:  SG-1 standard quadrature
 SCF converges when RMS gradient is below 1.0E-08
Using Q-Chem read-in guess as SCF_GUESS READ specified.

 using 16 threads for integral computing
 -------------------------------------------------------
 OpenMP Integral computing Module                
 Release: version 1.0, May 2013, Q-Chem Inc. Pittsburgh 
 -------------------------------------------------------
 using 16 threads for integral computing
 -------------------------------------------------------
 OpenMP Integral computing Module                
 Release: version 1.0, May 2013, Q-Chem Inc. Pittsburgh 
 -------------------------------------------------------
TIMEINFO->: J/JK contribution 460.31 sec.
 -------------------------------------------------------
 OpenMP BLAS3 based DFT computing Module                
 Release: version 1.0, May 2013, Q-Chem Inc. Pittsburgh 
 -------------------------------------------------------
 -------------------------------------------------------
 OpenMP BLAS3 based DFT computing Module                
 Release: version 1.0, May 2013, Q-Chem Inc. Pittsburgh 
 -------------------------------------------------------
 -------------------------------------------------------
 OpenMP BLAS3 based DFT computing Module                
 Release: version 1.0, May 2013, Q-Chem Inc. Pittsburgh 
 -------------------------------------------------------
 ---------------------------------------
  Cycle       Energy        RMS Gradient
 ---------------------------------------
    1      -8.0633633479      2.48E-10 Normal BFGS step
TIMEINFO->: J/JK contribution 462.68 sec.
   GDM::WARNING energy changes are now smaller than effective accuracy.
   GDM::        calculation will continue, but THRESH should be increased
   GDM::        or SCF_CONVERGENCE decreased.
   GDM::        effective_thresh =   2.000000000000000E-011
 Nonlocal correlation =     0.0056048438
    2      -8.0633633479      7.04E-11 Convergence criterion met
 ---------------------------------------
 wB97M-V orbitals are now ready for the wB97M(2) calculation.
 wB97M(2) energy = Exch (0.62194 SRHF + 1.0 LRHF + wB97M(2)_EXCH) + 
               Corr (wB97M(2)_CORR + 0.34096 MP2 + 0.65904 VV10(b=10))
 SCF time:  CPU 1841.94 s  wall 127.00 s
 SCF   energy in the final basis set = -8.05178125
 Total energy in the final basis set = -8.05178125

 Q-Chem fatal error occurred in module libmdc/qalloc.C, line 49:

 Illegal memory length in mega_alloc


 Please submit a crash report at q-chem.com/reporter 
 
 
