Q-Chem Developer Version!
                  Welcome to Q-Chem
     A Quantum Leap Into The Future Of Chemistry


 Q-Chem 5.1, Q-Chem, Inc., Pleasanton, CA (2018)

 Yihan Shao,  Zhengting Gan,  E. Epifanovsky,  A. T. B. Gilbert,  M. Wormit,  
 J. Kussmann,  A. W. Lange,  A. Behn,  Jia Deng,  Xintian Feng,  D. Ghosh,  
 M. Goldey,  P. R. Horn,  L. D. Jacobson,  I. Kaliman,  T. Kus,  A. Landau,  
 Jie Liu,  E. I. Proynov,  R. M. Richard,  R. P. Steele,  E. J. Sundstrom,  
 H. L. Woodcock III,  P. M. Zimmerman,  D. Zuev,  B. Albrecht,  E. Alguire,  
 S. A. Baeppler,  D. Barton,  Z. Benda,  Y. A. Bernard,  E. J. Berquist,  
 K. B. Bravaya,  H. Burton,  D. Casanova,  Chun-Min Chang,  Yunqing Chen,  
 A. Chien,  K. D. Closser,  M. P. Coons,  S. Coriani,  S. Dasgupta,  
 A. L. Dempwolff,  M. Diedenhofen,  Hainam Do,  R. G. Edgar,  Po-Tung Fang,  
 S. Faraji,  S. Fatehi,  Qingguo Feng,  K. D. Fenk,  J. Fosso-Tande,  
 Qinghui Ge,  A. Ghysels,  G. Gidofalvi,  J. Gomes,  J. Gonthier,  A. Gunina,  
 D. Hait,  M. W. D. Hanson-Heine,  P. H. P. Harbach,  A. W. Hauser,  
 J. E. Herr,  E. G. Hohenstein,  Z. C. Holden,  Kerwin Hui,  B. C. Huynh,  
 T.-C. Jagau,  Hyunjun Ji,  B. Kaduk,  K. Khistyaev,  Jaehoon Kim,  
 P. Klunzinger,  K. Koh,  D. Kosenkov,  L. Koulias,  T. Kowalczyk,  
 C. M. Krauter,  A. Kunitsa,  Ka Un Lao,  A. Laurent,  K. V. Lawler,  
 Joonho Lee,  D. Lefrancois,  S. Lehtola,  D. S. Levine,  Yi-Pei Li,  
 You-Sheng Lin,  Fenglai Liu,  E. Livshits,  A. Luenser,  P. Manohar,  
 E. Mansoor,  S. F. Manzer,  Shan-Ping Mao,  Yuezhi Mao,  N. Mardirossian,  
 A. V. Marenich,  T. Markovich,  L. A. Martinez-Martinez,  S. A. Maurer,  
 N. J. Mayhall,  S. C. McKenzie,  J.-M. Mewes,  A. F. Morrison,  
 J. W. Mullinax,  K. Nanda,  T. S. Nguyen-Beck,  R. Olivares-Amaya,  
 J. A. Parkhill,  T. M. Perrine,  F. Plasser,  P. Pokhilko,  S. Prager,  
 A. Prociuk,  E. Ramos,  D. R. Rehn,  F. Rob,  M. Schneider,  N. Sergueev,  
 S. M. Sharada,  S. Sharma,  D. W. Small,  T. Stauch,  T. Stein,  
 Yu-Chuan Su,  A. J. W. Thom,  A. Tkatchenko,  T. Tsuchimochi,  N. M. Tubman,  
 L. Vogt,  M. L. Vidal,  O. Vydrov,  M. A. Watson,  J. Wenzel,  
 M. de Wergifosse,  T. A. Wesolowski,  A. White,  J. Witte,  A. Yamada,  
 Jun Yang,  K. Yao,  S. Yeganeh,  S. R. Yost,  Zhi-Qiang You,  A. Zech,  
 Igor Ying Zhang,  Xing Zhang,  Yan Zhao,  Ying Zhu,  B. R. Brooks,  
 G. K. L. Chan,  C. J. Cramer,  M. S. Gordon,  W. J. Hehre,  A. Klamt,  
 M. W. Schmidt,  C. D. Sherrill,  D. G. Truhlar,  A. Aspuru-Guzik,  R. Baer,  
 A. T. Bell,  N. A. Besley,  Jeng-Da Chai,  A. E. DePrince, III,  
 R. A. DiStasio Jr.,  A. Dreuw,  B. D. Dunietz,  T. R. Furlani,  
 Chao-Ping Hsu,  Yousung Jung,  Jing Kong,  D. S. Lambrecht,  WanZhen Liang,  
 C. Ochsenfeld,  V. A. Rassolov,  L. V. Slipchenko,  J. E. Subotnik,  
 T. Van Voorhis,  J. M. Herbert,  A. I. Krylov,  P. M. W. Gill,  M. Head-Gordon

 Contributors to earlier versions of Q-Chem not listed above: 
 R. D. Adamson,  B. Austin,  J. Baker,  G. J. O. Beran,  K. Brandhorst,  
 S. T. Brown,  E. F. C. Byrd,  A. K. Chakraborty,  C.-L. Cheng,  
 Siu Hung Chien,  D. M. Chipman,  D. L. Crittenden,  H. Dachsel,  
 R. J. Doerksen,  A. D. Dutoi,  L. Fusti-Molnar,  W. A. Goddard III,  
 A. Golubeva-Zadorozhnaya,  S. R. Gwaltney,  G. Hawkins,  A. Heyden,  
 S. Hirata,  G. Kedziora,  F. J. Keil,  C. Kelley,  Jihan Kim,  R. A. King,  
 R. Z. Khaliullin,  P. P. Korambath,  W. Kurlancheek,  A. M. Lee,  M. S. Lee,  
 S. V. Levchenko,  Ching Yeh Lin,  D. Liotard,  R. C. Lochan,  I. Lotan,  
 P. E. Maslen,  N. Nair,  D. P. O'Neill,  D. Neuhauser,  E. Neuscamman,  
 C. M. Oana,  R. Olson,  B. Peters,  R. Peverati,  P. A. Pieniazek,  
 Y. M. Rhee,  J. Ritchie,  M. A. Rohrdanz,  E. Rosta,  N. J. Russ,  
 H. F. Schaefer III,  N. E. Schultz,  N. Shenvi,  A. C. Simmonett,  A. Sodt,  
 D. Stuck,  K. S. Thanthiriwatte,  V. Vanovschi,  Tao Wang,  A. Warshel,  
 C. F. Williams,  Q. Wu,  X. Xu,  W. Zhang

 Please cite Q-Chem as follows:
 Y. Shao et al., Mol. Phys. 113, 184-215 (2015)
 DOI: 10.1080/00268976.2014.952696

 Q-Chem 5.1.1 for Intel X86 EM64T Linux

 Parts of Q-Chem use Armadillo 8.300.2 (Tropical Shenanigans).
 http://arma.sourceforge.net/

 Q-Chem begins on Mon Nov  9 20:27:40 2020  

Host: n0010.cm1
0

     Scratch files written to /local/scratch/users/diptarka/qchem11888//
Input Ideriv = 2
Curr. Ideriv = -1
Max.  Ideriv = 2
Input Ideriv = 1
Curr. Ideriv = 2
Max.  Ideriv = 1

Checking the input file for inconsistencies... 	...done.

--------------------------------------------------------------
User input:
--------------------------------------------------------------
$molecule
0 1
O1      0.0000  0.0000  0.7788
Cl2     0.0000  1.3966  -0.1832
Cl3     0.0000  -1.3966 -0.1832
$end
$molecule
0 1
B1	0.0000	0.0000	0.0000
H2	0.0000	1.1900	0.0000
H3	1.0306	-0.5950	0.0000
H4	-1.0306	-0.5950	0.0000
$end

$rem
jobtype sp
method wB97M-V
xc_grid 000099000590
basis aug-cc-pcV5Z
max_scf_cycles 200
thresh 14
scf_convergence 7
scf_algorithm gdm
symmetry false
sym_ignore true
unrestricted false
gen_scfman true
mem_total 128000
n_frozen_core 500
$end

--------------------------------------------------------------
 ----------------------------------------------------------------
             Standard Nuclear Orientation (Angstroms)
    I     Atom           X                Y                Z
 ----------------------------------------------------------------
    1      O       0.0000000000     0.0000000000     0.7788000000
    2      Cl      0.0000000000     1.3966000000    -0.1832000000
    3      Cl      0.0000000000    -1.3966000000    -0.1832000000
 ----------------------------------------------------------------
 Nuclear Repulsion Energy =   139.6267478090 hartrees
 There are       21 alpha and       21 beta electrons
 Requested basis set is aug-cc-pCV5Z
 There are 135 shells and 615 basis functions

 Total QAlloc Memory Limit 128000 MB
 Mega-Array Size       188 MB
 MEM_STATIC part       192 MB

                       Distance Matrix (Angstroms)
             O (  1)   Cl(  2)
   Cl(  2)  1.695858
   Cl(  3)  1.695858  2.793200
 
 A cutoff of  1.0D-14 yielded   7830 shell pairs
 There are    169762 function pairs (    341029 Cartesian)
 
 -------------------------------------------------------
 OpenMP Integral Computing Module                       
 Release: version 1.0, May 2013, Q-Chem Inc. Pittsburgh 
 -------------------------------------------------------
 Integral Job Info:
 Integral job number is                      11
 Integral operator is                         1
 short-range coefficients              15000000
 long-range coefficients              100000000
 Omega coefficients                         300
 if combine SR and LR in K                    1
 Integral screening is                        0
 Integral computing path is                   2
 max size of driver memory is           6400000
 size of driver memory is               5498286
 size of scratch memory is             28955960
 max col of scratch BK array             194481
 max len of scratch array in speh3         5572
 max len of scratch index in speh4           72
 max int batch size is                      520
 min int batch size is                       52
 fixed nKL is                                24
 max L of basis functions is                  5
 order of int derivative is                   0
 number of shells is                        135
 number of basis is                         865
 number of cartesian basis is               865
 number of contracted shell pairs          7830
 number of primitive shell pairs          14650
 maxK2 (contraction) of shell pair          121
 max number of K2 of shell pair               1
 max number of CS2 of shell pair            731
 max number of PS2 of shell pair            836
 mem total for path MDJ                 1756632
 -------------------------------------------------------
 Smallest overlap matrix eigenvalue = 1.80E-05

 Scale SEOQF with 1.000000e-01/1.000000e-01/1.000000e-01

 Standard Electronic Orientation quadrupole field applied
 Nucleus-field energy     =     0.0000000041 hartrees
 Guess from superposition of atomic densities
 Warning:  Energy on first SCF cycle will be non-variational
 SAD guess density has 42.000000 electrons

 -----------------------------------------------------------------------
  General SCF calculation program by
  Eric Jon Sundstrom, Paul Horn, Yuezhi Mao, Dmitri Zuev, Alec White,
  David Stuck, Shaama M.S., Shane Yost, Joonho Lee, David Small,
  Daniel Levine, Susi Lehtola, Hugh Burton, Evgeny Epifanovsky
 -----------------------------------------------------------------------
 Exchange:     0.1500 Hartree-Fock + 1.0000 wB97M-V + LR-HF
 Correlation:  1.0000 wB97M-V
 Using Euler-Maclaurin-Lebedev (99,590) quadrature formula
 Nonlocal Correlation:  VV10 with C = 0.0100 and b = 6.00 and scale = 1.00000
 Grid used for NLC:  SG-1 standard quadrature
 using 32 threads for integral computing
 -------------------------------------------------------
 OpenMP Integral computing Module                
 Release: version 1.0, May 2013, Q-Chem Inc. Pittsburgh 
 -------------------------------------------------------
 using 32 threads for integral computing
 -------------------------------------------------------
 OpenMP Integral computing Module                
 Release: version 1.0, May 2013, Q-Chem Inc. Pittsburgh 
 -------------------------------------------------------
 -------------------------------------------------------
 OpenMP BLAS3 based DFT computing Module                
 Release: version 1.0, May 2013, Q-Chem Inc. Pittsburgh 
 -------------------------------------------------------
 -------------------------------------------------------
 OpenMP BLAS3 based DFT computing Module                
 Release: version 1.0, May 2013, Q-Chem Inc. Pittsburgh 
 -------------------------------------------------------
 -------------------------------------------------------
 OpenMP BLAS3 based DFT computing Module                
 Release: version 1.0, May 2013, Q-Chem Inc. Pittsburgh 
 -------------------------------------------------------
 Nonlocal correlation = 0.173622136070
 A restricted SCF calculation will be
 performed using Roothaan-Hall, GDM
 SCF converges when RMS gradient is below 1.0e-07
 ---------------------------------------
  Cycle       Energy         DIIS error
 ---------------------------------------
 Nonlocal correlation = 1.739028630351e-01
    1    -995.6852642517      6.61e-03  Roothaan Step
 ---------------------------------------
  Cycle       Energy        RMS Gradient
 ---------------------------------------
 Nonlocal correlation = 1.741913312399e-01
    1    -995.4862592550      1.02e-01   Normal BFGS step
 Nonlocal correlation = 1.739959250134e-01
    2    -995.4914870429      8.94e-02   Normal BFGS step
 Nonlocal correlation = 1.740298620340e-01
    3    -995.5228990471      1.61e-02   Normal BFGS step
 Nonlocal correlation = 1.740256218094e-01
    4    -995.5241037598      1.01e-02   Normal BFGS step
 Nonlocal correlation = 1.740258588582e-01
    5    -995.5249613147      1.44e-03   Normal BFGS step
 Nonlocal correlation = 1.740258183818e-01
    6    -995.5249734022      8.95e-04   Normal BFGS step
 Nonlocal correlation = 1.740260320863e-01
    7    -995.5249758788      1.87e-04   Normal BFGS step
 Nonlocal correlation = 1.740259732598e-01
    8    -995.5249759734      4.68e-05   Normal BFGS step
 Nonlocal correlation = 1.740259691431e-01
    9    -995.5249759859      1.55e-05   Normal BFGS step
 Nonlocal correlation = 1.740259693485e-01
   10    -995.5249759875      5.23e-06   Normal BFGS step
 Nonlocal correlation = 1.740259673685e-01
   11    -995.5249759876      1.16e-06   Normal BFGS step
 Nonlocal correlation = 1.740259689858e-01
   12    -995.5249759876      3.08e-07   Normal BFGS step
 Nonlocal correlation = 1.740259684941e-01
   13    -995.5249759876      4.35e-08  Convergence criterion met
 ---------------------------------------
 SCF time:   CPU 76538.53s  wall 4311.00s 
 SCF   energy in the final basis set =     -995.5249759876
 Total energy in the final basis set =     -995.5249759876
 
 --------------------------------------------------------------
 
                    Orbital Energies (a.u.)
 --------------------------------------------------------------
 
 Alpha MOs
 -- Occupied --
*******-101.936 -19.465  -9.707  -9.707  -7.416  -7.416  -7.402
 -7.402  -7.402  -7.402  -1.241  -0.994  -0.891  -0.631  -0.595
 -0.582  -0.456  -0.448  -0.434  -0.393
 -- Virtual --
 -0.043   0.018   0.036   0.055   0.056   0.057   0.084   0.084
  0.084   0.117   0.118   0.136   0.166   0.199   0.211   0.227
  0.246   0.279   0.279   0.300   0.301   0.310   0.315   0.317
  0.324   0.327   0.371   0.378   0.387   0.398   0.422   0.428
  0.471   0.472   0.484   0.500   0.508   0.519   0.521   0.567
  0.573   0.574   0.582   0.583   0.586   0.608   0.625   0.645
  0.647   0.657   0.674   0.684   0.691   0.701   0.788   0.803
  0.805   0.812   0.830   0.831   0.865   0.867   0.912   0.942
  0.960   1.052   1.080   1.095   1.114   1.122   1.141   1.176
  1.187   1.193   1.194   1.197   1.229   1.246   1.268   1.301
  1.302   1.305   1.311   1.341   1.367   1.373   1.374   1.377
  1.390   1.390   1.398   1.400   1.431   1.431   1.435   1.451
  1.457   1.479   1.485   1.510   1.517   1.548   1.565   1.574
  1.584   1.596   1.610   1.613   1.659   1.672   1.677   1.678
  1.685   1.713   1.775   1.793   1.803   1.844   1.853   1.887
  1.914   2.043   2.114   2.120   2.199   2.264   2.281   2.323
  2.474   2.586   2.591   2.666   2.719   2.730   2.767   2.807
  2.824   2.833   2.844   2.848   2.882   2.909   2.941   2.941
  2.964   2.966   3.010   3.015   3.025   3.033   3.055   3.091
  3.100   3.110   3.127   3.133   3.142   3.157   3.160   3.172
  3.189   3.214   3.226   3.226   3.231   3.238   3.267   3.288
  3.299   3.314   3.334   3.361   3.363   3.381   3.382   3.391
  3.430   3.434   3.462   3.462   3.477   3.479   3.494   3.506
  3.579   3.595   3.607   3.640   3.670   3.692   3.693   3.731
  3.733   3.747   3.798   3.837   3.846   3.871   3.924   3.944
  3.975   4.001   4.039   4.135   4.206   4.240   4.352   4.397
  4.432   4.438   4.448   4.471   4.474   4.532   4.698   4.754
  4.891   4.905   4.972   5.203   5.257   5.507   5.648   5.741
  5.913   6.048   6.085   6.198   6.209   6.228   6.229   6.248
  6.261   6.319   6.363   6.380   6.383   6.445   6.460   6.528
  6.537   6.540   6.564   6.573   6.591   6.619   6.633   6.664
  6.726   6.782   6.885   6.967   6.969   6.986   7.021   7.042
  7.047   7.050   7.059   7.086   7.103   7.126   7.130   7.152
  7.168   7.168   7.190   7.210   7.222   7.273   7.285   7.315
  7.315   7.320   7.322   7.329   7.346   7.349   7.369   7.388
  7.427   7.469   7.492   7.506   7.511   7.542   7.617   7.618
  7.684   7.730   7.789   7.798   7.828   7.908   8.039   8.045
  8.074   8.093   8.095   8.275   8.305   8.377   8.411   8.639
  8.735   8.838   8.857   8.865   8.893   8.996   9.107   9.173
  9.889   9.928   9.940   9.965  10.021  10.605  10.614  10.640
 10.689  10.696  10.971  11.149  11.611  11.618  11.634  12.025
 12.947  13.056  13.370  14.209  14.697  15.904  15.907  16.136
 16.183  16.238  16.258  16.358  16.481  16.515  16.861  16.994
 17.305  17.505  18.140  18.142  18.159  18.161  18.190  18.232
 18.241  18.244  18.327  18.367  18.369  18.391  18.418  18.433
 18.724  18.727  18.831  18.857  18.871  18.912  18.919  18.965
 18.980  19.161  19.338  19.395  19.504  19.788  19.944  19.979
 21.385  21.488  21.634  22.124  22.460  25.085  25.105  25.130
 25.161  25.619  25.620  25.692  25.736  26.025  26.315  29.434
 31.190  31.200  31.220  31.448  32.174  32.291  37.534  38.094
 38.458  38.459  38.459  38.459  38.460  38.460  38.466  38.467
 38.478  38.479  38.480  38.484  38.521  38.525  38.527  38.560
 38.595  38.601  38.708  44.803  45.019  52.261  52.262  52.273
 52.276  52.295  52.318  52.324  52.326  52.425  52.427  52.441
 52.447  52.487  52.543  59.546  59.560  59.582  59.607  59.919
 59.923  60.011  60.071  60.147  60.249  60.356  60.452  60.520
 61.005  61.375  71.117  71.138  71.282  71.314  71.354  71.484
 71.489  81.538  83.034  83.042  83.060  83.238  83.834  83.918
101.051 101.051 101.051 101.052 101.052 101.052 101.054 101.054
101.056 101.056 101.059 101.060 101.060 101.060 101.062 101.063
101.063 101.063 101.066 101.066 101.072 101.072 106.433 106.876
107.378 116.494 116.701 122.236 122.236 122.236 122.237 122.237
122.237 122.240 122.241 122.245 122.245 122.245 122.248 122.264
122.265 122.266 122.280 122.301 122.308 136.564 136.574 136.594
136.615 136.902 136.903 136.965 137.002 137.251 137.389 141.576
141.577 141.584 141.586 141.598 141.614 141.618 141.621 141.698
141.699 141.708 141.716 141.741 141.774 180.261 180.306 180.378
180.619 180.780 219.362 223.624 223.631 223.646 223.794 224.274
224.364 245.035 245.035 245.054 245.055 245.069 245.073 245.077
245.087 245.088 290.933 290.944 290.998 291.006 291.026 291.068
291.075 298.072 298.450 298.889 307.777 307.789 307.801 307.824
308.058 308.058 308.116 308.147 308.354 308.466 317.770 317.975
557.665 557.705 557.748 557.920 558.024 585.335 720.854 720.860
720.874 721.011 721.443 721.541 840.985 841.314 841.6831394.278
*******2090.434
 --------------------------------------------------------------
 
          Ground-State Mulliken Net Atomic Charges

     Atom                 Charge (a.u.)
  ----------------------------------------
      1 O                    -0.431086
      2 Cl                    0.215543
      3 Cl                    0.215543
  ----------------------------------------
  Sum of atomic charges =     0.000000

 -----------------------------------------------------------------
                    Cartesian Multipole Moments
 -----------------------------------------------------------------
    Charge (ESU x 10^10)
                 0.0000
    Dipole Moment (Debye)
         X       0.0000      Y       0.0000      Z      -0.5762
       Tot       0.5762
    Quadrupole Moments (Debye-Ang)
        XX     -31.0440     XY      -0.0000     YY     -27.2916
        XZ       0.0000     YZ       0.0000     ZZ     -30.4015
    Octopole Moments (Debye-Ang^2)
       XXX       0.0000    XXY       0.0000    XYY       0.0000
       YYY      -0.0000    XXZ       0.8637    XYZ       0.0000
       YYZ      -4.1973    XZZ       0.0000    YZZ       0.0000
       ZZZ       1.3885
    Hexadecapole Moments (Debye-Ang^3)
      XXXX     -34.3597   XXXY      -0.0000   XXYY     -62.0968
      XYYY      -0.0000   YYYY    -296.2673   XXXZ       0.0000
      XXYZ       0.0000   XYYZ      -0.0000   YYYZ       0.0000
      XXZZ     -15.5394   XYZZ      -0.0000   YYZZ     -59.2405
      XZZZ       0.0000   YZZZ       0.0000   ZZZZ     -56.7069
 -----------------------------------------------------------------
Archival summary:
1\1\n0010.cm1\SP\ProcedureUnspecified\BasisUnspecified\l21\diptarka\MonNov921:39:412020MonNov921:39:412020\0\\#,ProcedureUnspecified,BasisUnspecified,\\0,1\Cl\O,1,1.69586\Cl,2,1.69586,1,110.881\\\@

 Total job time:  4321.03s(wall), 76589.39s(cpu) 
 Mon Nov  9 21:39:41 2020

        *************************************************************
        *                                                           *
        *  Thank you very much for using Q-Chem.  Have a nice day.  *
        *                                                           *
        *************************************************************


 
User input: 2 of 6 
 
Q-Chem Developer Version!
                  Welcome to Q-Chem
     A Quantum Leap Into The Future Of Chemistry


 Q-Chem 5.1, Q-Chem, Inc., Pleasanton, CA (2018)

 Yihan Shao,  Zhengting Gan,  E. Epifanovsky,  A. T. B. Gilbert,  M. Wormit,  
 J. Kussmann,  A. W. Lange,  A. Behn,  Jia Deng,  Xintian Feng,  D. Ghosh,  
 M. Goldey,  P. R. Horn,  L. D. Jacobson,  I. Kaliman,  T. Kus,  A. Landau,  
 Jie Liu,  E. I. Proynov,  R. M. Richard,  R. P. Steele,  E. J. Sundstrom,  
 H. L. Woodcock III,  P. M. Zimmerman,  D. Zuev,  B. Albrecht,  E. Alguire,  
 S. A. Baeppler,  D. Barton,  Z. Benda,  Y. A. Bernard,  E. J. Berquist,  
 K. B. Bravaya,  H. Burton,  D. Casanova,  Chun-Min Chang,  Yunqing Chen,  
 A. Chien,  K. D. Closser,  M. P. Coons,  S. Coriani,  S. Dasgupta,  
 A. L. Dempwolff,  M. Diedenhofen,  Hainam Do,  R. G. Edgar,  Po-Tung Fang,  
 S. Faraji,  S. Fatehi,  Qingguo Feng,  K. D. Fenk,  J. Fosso-Tande,  
 Qinghui Ge,  A. Ghysels,  G. Gidofalvi,  J. Gomes,  J. Gonthier,  A. Gunina,  
 D. Hait,  M. W. D. Hanson-Heine,  P. H. P. Harbach,  A. W. Hauser,  
 J. E. Herr,  E. G. Hohenstein,  Z. C. Holden,  Kerwin Hui,  B. C. Huynh,  
 T.-C. Jagau,  Hyunjun Ji,  B. Kaduk,  K. Khistyaev,  Jaehoon Kim,  
 P. Klunzinger,  K. Koh,  D. Kosenkov,  L. Koulias,  T. Kowalczyk,  
 C. M. Krauter,  A. Kunitsa,  Ka Un Lao,  A. Laurent,  K. V. Lawler,  
 Joonho Lee,  D. Lefrancois,  S. Lehtola,  D. S. Levine,  Yi-Pei Li,  
 You-Sheng Lin,  Fenglai Liu,  E. Livshits,  A. Luenser,  P. Manohar,  
 E. Mansoor,  S. F. Manzer,  Shan-Ping Mao,  Yuezhi Mao,  N. Mardirossian,  
 A. V. Marenich,  T. Markovich,  L. A. Martinez-Martinez,  S. A. Maurer,  
 N. J. Mayhall,  S. C. McKenzie,  J.-M. Mewes,  A. F. Morrison,  
 J. W. Mullinax,  K. Nanda,  T. S. Nguyen-Beck,  R. Olivares-Amaya,  
 J. A. Parkhill,  T. M. Perrine,  F. Plasser,  P. Pokhilko,  S. Prager,  
 A. Prociuk,  E. Ramos,  D. R. Rehn,  F. Rob,  M. Schneider,  N. Sergueev,  
 S. M. Sharada,  S. Sharma,  D. W. Small,  T. Stauch,  T. Stein,  
 Yu-Chuan Su,  A. J. W. Thom,  A. Tkatchenko,  T. Tsuchimochi,  N. M. Tubman,  
 L. Vogt,  M. L. Vidal,  O. Vydrov,  M. A. Watson,  J. Wenzel,  
 M. de Wergifosse,  T. A. Wesolowski,  A. White,  J. Witte,  A. Yamada,  
 Jun Yang,  K. Yao,  S. Yeganeh,  S. R. Yost,  Zhi-Qiang You,  A. Zech,  
 Igor Ying Zhang,  Xing Zhang,  Yan Zhao,  Ying Zhu,  B. R. Brooks,  
 G. K. L. Chan,  C. J. Cramer,  M. S. Gordon,  W. J. Hehre,  A. Klamt,  
 M. W. Schmidt,  C. D. Sherrill,  D. G. Truhlar,  A. Aspuru-Guzik,  R. Baer,  
 A. T. Bell,  N. A. Besley,  Jeng-Da Chai,  A. E. DePrince, III,  
 R. A. DiStasio Jr.,  A. Dreuw,  B. D. Dunietz,  T. R. Furlani,  
 Chao-Ping Hsu,  Yousung Jung,  Jing Kong,  D. S. Lambrecht,  WanZhen Liang,  
 C. Ochsenfeld,  V. A. Rassolov,  L. V. Slipchenko,  J. E. Subotnik,  
 T. Van Voorhis,  J. M. Herbert,  A. I. Krylov,  P. M. W. Gill,  M. Head-Gordon

 Contributors to earlier versions of Q-Chem not listed above: 
 R. D. Adamson,  B. Austin,  J. Baker,  G. J. O. Beran,  K. Brandhorst,  
 S. T. Brown,  E. F. C. Byrd,  A. K. Chakraborty,  C.-L. Cheng,  
 Siu Hung Chien,  D. M. Chipman,  D. L. Crittenden,  H. Dachsel,  
 R. J. Doerksen,  A. D. Dutoi,  L. Fusti-Molnar,  W. A. Goddard III,  
 A. Golubeva-Zadorozhnaya,  S. R. Gwaltney,  G. Hawkins,  A. Heyden,  
 S. Hirata,  G. Kedziora,  F. J. Keil,  C. Kelley,  Jihan Kim,  R. A. King,  
 R. Z. Khaliullin,  P. P. Korambath,  W. Kurlancheek,  A. M. Lee,  M. S. Lee,  
 S. V. Levchenko,  Ching Yeh Lin,  D. Liotard,  R. C. Lochan,  I. Lotan,  
 P. E. Maslen,  N. Nair,  D. P. O'Neill,  D. Neuhauser,  E. Neuscamman,  
 C. M. Oana,  R. Olson,  B. Peters,  R. Peverati,  P. A. Pieniazek,  
 Y. M. Rhee,  J. Ritchie,  M. A. Rohrdanz,  E. Rosta,  N. J. Russ,  
 H. F. Schaefer III,  N. E. Schultz,  N. Shenvi,  A. C. Simmonett,  A. Sodt,  
 D. Stuck,  K. S. Thanthiriwatte,  V. Vanovschi,  Tao Wang,  A. Warshel,  
 C. F. Williams,  Q. Wu,  X. Xu,  W. Zhang

 Please cite Q-Chem as follows:
 Y. Shao et al., Mol. Phys. 113, 184-215 (2015)
 DOI: 10.1080/00268976.2014.952696

 Q-Chem 5.1.1 for Intel X86 EM64T Linux

 Parts of Q-Chem use Armadillo 8.300.2 (Tropical Shenanigans).
 http://arma.sourceforge.net/

 Q-Chem begins on Mon Nov  9 21:39:41 2020  

Host: n0010.cm1
0

     Scratch files written to /local/scratch/users/diptarka/qchem11888//
The previous job contains 0 fragments, simply inherited here
Input Ideriv = 0
Curr. Ideriv = -1
Max.  Ideriv = 0
Analytic post-HF gradients are not available with non-HF exchange
Input Ideriv = 0
Curr. Ideriv = 0
Max.  Ideriv = 0

Checking the input file for inconsistencies... 	...done.

--------------------------------------------------------------
User input:
--------------------------------------------------------------
$molecule
read
$end

$rem
jobtype sp
exchange wB97M(2)
xc_grid 000099000590
basis aug-cc-pcV5Z
max_scf_cycles 200
thresh 14
scf_convergence 7
scf_algorithm gdm
symmetry false
sym_ignore true
unrestricted false
gen_scfman false
mem_total 128000
cc_memory 96000
cc_backend xm
mem_static 1500
n_frozen_core 500
scf_guess read
$end



--------------------------------------------------------------
 ----------------------------------------------------------------
             Standard Nuclear Orientation (Angstroms)
    I     Atom           X                Y                Z
 ----------------------------------------------------------------
    1      O       0.0000000000     0.0000000000     0.7788000000
    2      Cl      0.0000000000     1.3966000000    -0.1832000000
    3      Cl      0.0000000000    -1.3966000000    -0.1832000000
 ----------------------------------------------------------------
 Nuclear Repulsion Energy =   139.6267478090 hartrees
 There are       21 alpha and       21 beta electrons
 Requested basis set is aug-cc-pCV5Z
 There are 135 shells and 615 basis functions

 Total QAlloc Memory Limit 128000 MB
 Mega-Array Size      1467 MB
 MEM_STATIC part      1500 MB

                       Distance Matrix (Angstroms)
             O (  1)   Cl(  2)
   Cl(  2)  1.695858
   Cl(  3)  1.695858  2.793200
 
 A cutoff of  1.0D-14 yielded   7830 shell pairs
 There are    169762 function pairs (    341029 Cartesian)
 
 -------------------------------------------------------
 OpenMP Integral Computing Module                       
 Release: version 1.0, May 2013, Q-Chem Inc. Pittsburgh 
 -------------------------------------------------------
 Integral Job Info:
 Integral job number is                      11
 Integral operator is                         1
 short-range coefficients              15000000
 long-range coefficients              100000000
 Omega coefficients                         300
 if combine SR and LR in K                    1
 Integral screening is                        0
 Integral computing path is                   2
 max size of driver memory is           6400000
 size of driver memory is               5498286
 size of scratch memory is             28955960
 max col of scratch BK array             194481
 max len of scratch array in speh3         5572
 max len of scratch index in speh4           72
 max int batch size is                      520
 min int batch size is                       52
 fixed nKL is                                24
 max L of basis functions is                  5
 order of int derivative is                   0
 number of shells is                        135
 number of basis is                         865
 number of cartesian basis is               865
 number of contracted shell pairs          7830
 number of primitive shell pairs          14650
 maxK2 (contraction) of shell pair          121
 max number of K2 of shell pair               1
 max number of CS2 of shell pair            731
 max number of PS2 of shell pair            836
 mem total for path MDJ                 1756632
 -------------------------------------------------------
 Smallest overlap matrix eigenvalue = 1.80E-05

 Scale SEOQF with 1.000000e-01/1.000000e-01/1.000000e-01

 Standard Electronic Orientation quadrupole field applied
 Nucleus-field energy     =     0.0000000041 hartrees
 Guess MOs from SCF MO coefficient file
 Reading MOs from coefficient file
 Reading MOs from coefficient file
 Long-range K will be added via erf
 Coulomb attenuation parameter = 0.3 bohr**(-1)
 A restricted hybrid HF-DFT SCF calculation will be
 performed using Geometric Direct Minimization
 Exchange:     0.1500 Hartree-Fock + 1.0000 wB97M-V + LR-HF
 Correlation:  1.0000 wB97M-V
 Using Euler-Maclaurin-Lebedev (99,590) quadrature formula
 Nonlocal Correlation:  VV10 with C = 0.0100 and b = 6.00 and scale = 1.00000
 Grid used for NLC:  SG-1 standard quadrature
 SCF converges when RMS gradient is below 1.0E-07
Using Q-Chem read-in guess as SCF_GUESS READ specified.

 using 32 threads for integral computing
 -------------------------------------------------------
 OpenMP Integral computing Module                
 Release: version 1.0, May 2013, Q-Chem Inc. Pittsburgh 
 -------------------------------------------------------
 using 32 threads for integral computing
 -------------------------------------------------------
 OpenMP Integral computing Module                
 Release: version 1.0, May 2013, Q-Chem Inc. Pittsburgh 
 -------------------------------------------------------
TIMEINFO->: J/JK contribution 5375.32 sec.
 -------------------------------------------------------
 OpenMP BLAS3 based DFT computing Module                
 Release: version 1.0, May 2013, Q-Chem Inc. Pittsburgh 
 -------------------------------------------------------
 -------------------------------------------------------
 OpenMP BLAS3 based DFT computing Module                
 Release: version 1.0, May 2013, Q-Chem Inc. Pittsburgh 
 -------------------------------------------------------
 -------------------------------------------------------
 OpenMP BLAS3 based DFT computing Module                
 Release: version 1.0, May 2013, Q-Chem Inc. Pittsburgh 
 -------------------------------------------------------
 ---------------------------------------
  Cycle       Energy        RMS Gradient
 ---------------------------------------
    1    -995.5249759876      9.95E-09 Normal BFGS step
TIMEINFO->: J/JK contribution 5366.00 sec.
   GDM::WARNING energy changes are now smaller than effective accuracy.
   GDM::        calculation will continue, but THRESH should be increased
   GDM::        or SCF_CONVERGENCE decreased.
   GDM::        effective_thresh =   2.100000000000000E-010
 Nonlocal correlation =     0.0561119344
    2    -995.5249759876      1.02E-08 Convergence criterion met
 ---------------------------------------
 wB97M-V orbitals are now ready for the wB97M(2) calculation.
 wB97M(2) energy = Exch (0.62194 SRHF + 1.0 LRHF + wB97M(2)_EXCH) + 
               Corr (wB97M(2)_CORR + 0.34096 MP2 + 0.65904 VV10(b=10))
 SCF time:  CPU 21282.00 s  wall 1213.48 s
 SCF   energy in the final basis set = -995.31051814
 Total energy in the final basis set = -995.31051814

 Q-Chem fatal error occurred in module libmdc/qalloc.C, line 49:

 Illegal memory length in mega_alloc


 Please submit a crash report at q-chem.com/reporter 
 
 
 
User input: 3 of 6 
 
Q-Chem Developer Version!
                  Welcome to Q-Chem
     A Quantum Leap Into The Future Of Chemistry


 Q-Chem 5.1, Q-Chem, Inc., Pleasanton, CA (2018)

 Yihan Shao,  Zhengting Gan,  E. Epifanovsky,  A. T. B. Gilbert,  M. Wormit,  
 J. Kussmann,  A. W. Lange,  A. Behn,  Jia Deng,  Xintian Feng,  D. Ghosh,  
 M. Goldey,  P. R. Horn,  L. D. Jacobson,  I. Kaliman,  T. Kus,  A. Landau,  
 Jie Liu,  E. I. Proynov,  R. M. Richard,  R. P. Steele,  E. J. Sundstrom,  
 H. L. Woodcock III,  P. M. Zimmerman,  D. Zuev,  B. Albrecht,  E. Alguire,  
 S. A. Baeppler,  D. Barton,  Z. Benda,  Y. A. Bernard,  E. J. Berquist,  
 K. B. Bravaya,  H. Burton,  D. Casanova,  Chun-Min Chang,  Yunqing Chen,  
 A. Chien,  K. D. Closser,  M. P. Coons,  S. Coriani,  S. Dasgupta,  
 A. L. Dempwolff,  M. Diedenhofen,  Hainam Do,  R. G. Edgar,  Po-Tung Fang,  
 S. Faraji,  S. Fatehi,  Qingguo Feng,  K. D. Fenk,  J. Fosso-Tande,  
 Qinghui Ge,  A. Ghysels,  G. Gidofalvi,  J. Gomes,  J. Gonthier,  A. Gunina,  
 D. Hait,  M. W. D. Hanson-Heine,  P. H. P. Harbach,  A. W. Hauser,  
 J. E. Herr,  E. G. Hohenstein,  Z. C. Holden,  Kerwin Hui,  B. C. Huynh,  
 T.-C. Jagau,  Hyunjun Ji,  B. Kaduk,  K. Khistyaev,  Jaehoon Kim,  
 P. Klunzinger,  K. Koh,  D. Kosenkov,  L. Koulias,  T. Kowalczyk,  
 C. M. Krauter,  A. Kunitsa,  Ka Un Lao,  A. Laurent,  K. V. Lawler,  
 Joonho Lee,  D. Lefrancois,  S. Lehtola,  D. S. Levine,  Yi-Pei Li,  
 You-Sheng Lin,  Fenglai Liu,  E. Livshits,  A. Luenser,  P. Manohar,  
 E. Mansoor,  S. F. Manzer,  Shan-Ping Mao,  Yuezhi Mao,  N. Mardirossian,  
 A. V. Marenich,  T. Markovich,  L. A. Martinez-Martinez,  S. A. Maurer,  
 N. J. Mayhall,  S. C. McKenzie,  J.-M. Mewes,  A. F. Morrison,  
 J. W. Mullinax,  K. Nanda,  T. S. Nguyen-Beck,  R. Olivares-Amaya,  
 J. A. Parkhill,  T. M. Perrine,  F. Plasser,  P. Pokhilko,  S. Prager,  
 A. Prociuk,  E. Ramos,  D. R. Rehn,  F. Rob,  M. Schneider,  N. Sergueev,  
 S. M. Sharada,  S. Sharma,  D. W. Small,  T. Stauch,  T. Stein,  
 Yu-Chuan Su,  A. J. W. Thom,  A. Tkatchenko,  T. Tsuchimochi,  N. M. Tubman,  
 L. Vogt,  M. L. Vidal,  O. Vydrov,  M. A. Watson,  J. Wenzel,  
 M. de Wergifosse,  T. A. Wesolowski,  A. White,  J. Witte,  A. Yamada,  
 Jun Yang,  K. Yao,  S. Yeganeh,  S. R. Yost,  Zhi-Qiang You,  A. Zech,  
 Igor Ying Zhang,  Xing Zhang,  Yan Zhao,  Ying Zhu,  B. R. Brooks,  
 G. K. L. Chan,  C. J. Cramer,  M. S. Gordon,  W. J. Hehre,  A. Klamt,  
 M. W. Schmidt,  C. D. Sherrill,  D. G. Truhlar,  A. Aspuru-Guzik,  R. Baer,  
 A. T. Bell,  N. A. Besley,  Jeng-Da Chai,  A. E. DePrince, III,  
 R. A. DiStasio Jr.,  A. Dreuw,  B. D. Dunietz,  T. R. Furlani,  
 Chao-Ping Hsu,  Yousung Jung,  Jing Kong,  D. S. Lambrecht,  WanZhen Liang,  
 C. Ochsenfeld,  V. A. Rassolov,  L. V. Slipchenko,  J. E. Subotnik,  
 T. Van Voorhis,  J. M. Herbert,  A. I. Krylov,  P. M. W. Gill,  M. Head-Gordon

 Contributors to earlier versions of Q-Chem not listed above: 
 R. D. Adamson,  B. Austin,  J. Baker,  G. J. O. Beran,  K. Brandhorst,  
 S. T. Brown,  E. F. C. Byrd,  A. K. Chakraborty,  C.-L. Cheng,  
 Siu Hung Chien,  D. M. Chipman,  D. L. Crittenden,  H. Dachsel,  
 R. J. Doerksen,  A. D. Dutoi,  L. Fusti-Molnar,  W. A. Goddard III,  
 A. Golubeva-Zadorozhnaya,  S. R. Gwaltney,  G. Hawkins,  A. Heyden,  
 S. Hirata,  G. Kedziora,  F. J. Keil,  C. Kelley,  Jihan Kim,  R. A. King,  
 R. Z. Khaliullin,  P. P. Korambath,  W. Kurlancheek,  A. M. Lee,  M. S. Lee,  
 S. V. Levchenko,  Ching Yeh Lin,  D. Liotard,  R. C. Lochan,  I. Lotan,  
 P. E. Maslen,  N. Nair,  D. P. O'Neill,  D. Neuhauser,  E. Neuscamman,  
 C. M. Oana,  R. Olson,  B. Peters,  R. Peverati,  P. A. Pieniazek,  
 Y. M. Rhee,  J. Ritchie,  M. A. Rohrdanz,  E. Rosta,  N. J. Russ,  
 H. F. Schaefer III,  N. E. Schultz,  N. Shenvi,  A. C. Simmonett,  A. Sodt,  
 D. Stuck,  K. S. Thanthiriwatte,  V. Vanovschi,  Tao Wang,  A. Warshel,  
 C. F. Williams,  Q. Wu,  X. Xu,  W. Zhang

 Please cite Q-Chem as follows:
 Y. Shao et al., Mol. Phys. 113, 184-215 (2015)
 DOI: 10.1080/00268976.2014.952696

 Q-Chem 5.1.1 for Intel X86 EM64T Linux

 Parts of Q-Chem use Armadillo 8.300.2 (Tropical Shenanigans).
 http://arma.sourceforge.net/

 Q-Chem begins on Mon Nov  9 22:00:06 2020  

Host: n0010.cm1
0

     Scratch files written to /local/scratch/users/diptarka/qchem11888//
The previous job contains 0 fragments, simply inherited here
Input Ideriv = 2
Curr. Ideriv = -1
Max.  Ideriv = 2
Input Ideriv = 1
Curr. Ideriv = 2
Max.  Ideriv = 1

Checking the input file for inconsistencies... 	...done.

--------------------------------------------------------------
User input:
--------------------------------------------------------------
$molecule
read
$end

$rem

jobtype sp
method wb97m-v
xc_grid 000099000590
basis aug-cc-pcV5Z
max_scf_cycles 200
thresh 14
scf_convergence 7
mem_total 128000
cc_memory 96000
cc_backend xm
mem_static 1500
symmetry false
sym_ignore true
scf_guess read
unrestricted false
scf_algorithm gdm
n_frozen_core 500
gen_scfman true
$end

$multipole_field
Z 0.0001
$end



--------------------------------------------------------------
 ----------------------------------------------------------------
             Standard Nuclear Orientation (Angstroms)
    I     Atom           X                Y                Z
 ----------------------------------------------------------------
    1      O       0.0000000000     0.0000000000     0.7788000000
    2      Cl      0.0000000000     1.3966000000    -0.1832000000
    3      Cl      0.0000000000    -1.3966000000    -0.1832000000
 ----------------------------------------------------------------
 Nuclear Repulsion Energy =   139.6267478090 hartrees
 There are       21 alpha and       21 beta electrons
 Requested basis set is aug-cc-pCV5Z
 There are 135 shells and 615 basis functions

 Total QAlloc Memory Limit 128000 MB
 Mega-Array Size      1467 MB
 MEM_STATIC part      1500 MB

                       Distance Matrix (Angstroms)
             O (  1)   Cl(  2)
   Cl(  2)  1.695858
   Cl(  3)  1.695858  2.793200
 
 Applying Cartesian multipole field
    Component          Value
    ---------          -----
     (0,0,1)        1.00000E-04
 Nucleus-field energy     =     0.0000003024 hartrees
 A cutoff of  1.0D-14 yielded   7830 shell pairs
 There are    169762 function pairs (    341029 Cartesian)
 
 -------------------------------------------------------
 OpenMP Integral Computing Module                       
 Release: version 1.0, May 2013, Q-Chem Inc. Pittsburgh 
 -------------------------------------------------------
 Integral Job Info:
 Integral job number is                      11
 Integral operator is                         1
 short-range coefficients              15000000
 long-range coefficients              100000000
 Omega coefficients                         300
 if combine SR and LR in K                    1
 Integral screening is                        0
 Integral computing path is                   2
 max size of driver memory is           6400000
 size of driver memory is               5498286
 size of scratch memory is             28955960
 max col of scratch BK array             194481
 max len of scratch array in speh3         5572
 max len of scratch index in speh4           72
 max int batch size is                      520
 min int batch size is                       52
 fixed nKL is                                24
 max L of basis functions is                  5
 order of int derivative is                   0
 number of shells is                        135
 number of basis is                         865
 number of cartesian basis is               865
 number of contracted shell pairs          7830
 number of primitive shell pairs          14650
 maxK2 (contraction) of shell pair          121
 max number of K2 of shell pair               1
 max number of CS2 of shell pair            731
 max number of PS2 of shell pair            836
 mem total for path MDJ                 1756632
 -------------------------------------------------------
 Smallest overlap matrix eigenvalue = 1.80E-05
 Guess MOs from SCF MO coefficient file

 -----------------------------------------------------------------------
  General SCF calculation program by
  Eric Jon Sundstrom, Paul Horn, Yuezhi Mao, Dmitri Zuev, Alec White,
  David Stuck, Shaama M.S., Shane Yost, Joonho Lee, David Small,
  Daniel Levine, Susi Lehtola, Hugh Burton, Evgeny Epifanovsky
 -----------------------------------------------------------------------
 Exchange:     0.1500 Hartree-Fock + 1.0000 wB97M-V + LR-HF
 Correlation:  1.0000 wB97M-V
 Using Euler-Maclaurin-Lebedev (99,590) quadrature formula
 Nonlocal Correlation:  VV10 with C = 0.0100 and b = 6.00 and scale = 1.00000
 Grid used for NLC:  SG-1 standard quadrature
 using 32 threads for integral computing
 -------------------------------------------------------
 OpenMP Integral computing Module                
 Release: version 1.0, May 2013, Q-Chem Inc. Pittsburgh 
 -------------------------------------------------------
 using 32 threads for integral computing
 -------------------------------------------------------
 OpenMP Integral computing Module                
 Release: version 1.0, May 2013, Q-Chem Inc. Pittsburgh 
 -------------------------------------------------------
 -------------------------------------------------------
 OpenMP BLAS3 based DFT computing Module                
 Release: version 1.0, May 2013, Q-Chem Inc. Pittsburgh 
 -------------------------------------------------------
 -------------------------------------------------------
 OpenMP BLAS3 based DFT computing Module                
 Release: version 1.0, May 2013, Q-Chem Inc. Pittsburgh 
 -------------------------------------------------------
 -------------------------------------------------------
 OpenMP BLAS3 based DFT computing Module                
 Release: version 1.0, May 2013, Q-Chem Inc. Pittsburgh 
 -------------------------------------------------------
 Nonlocal correlation = 0.174025968531
 A restricted SCF calculation will be
 performed using GDM
 SCF converges when RMS gradient is below 1.0e-07
 ---------------------------------------
  Cycle       Energy        RMS Gradient
 ---------------------------------------
 Nonlocal correlation = 1.740261797133e-01
    1    -995.5249986553      1.64e-04   Normal BFGS step
 Nonlocal correlation = 1.740258876421e-01
    2    -995.5249987578      1.21e-04   Normal BFGS step
 Nonlocal correlation = 1.740260265925e-01
    3    -995.5249988038      3.68e-05   Normal BFGS step
 Nonlocal correlation = 1.740260095366e-01
    4    -995.5249988137      1.22e-05   Normal BFGS step
 Nonlocal correlation = 1.740260060161e-01
    5    -995.5249988156      2.23e-06   Normal BFGS step
 Nonlocal correlation = 1.740260070195e-01
    6    -995.5249988156      1.25e-06   Normal BFGS step
 Nonlocal correlation = 1.740260074267e-01
    7    -995.5249988156      5.52e-07   Normal BFGS step
 Nonlocal correlation = 1.740260072357e-01
    8    -995.5249988156      6.87e-08  Convergence criterion met
 ---------------------------------------
 SCF time:   CPU 49011.04s  wall 2751.00s 
 SCF   energy in the final basis set =     -995.5249988156
 Total energy in the final basis set =     -995.5249988156
 
 --------------------------------------------------------------
 
                    Orbital Energies (a.u.)
 --------------------------------------------------------------
 
 Alpha MOs
 -- Occupied --
*******-101.936 -19.465  -9.707  -9.707  -7.415  -7.415  -7.402
 -7.402  -7.402  -7.402  -1.241  -0.994  -0.891  -0.631  -0.595
 -0.582  -0.456  -0.448  -0.434  -0.393
 -- Virtual --
 -0.043   0.018   0.036   0.055   0.056   0.057   0.084   0.084
  0.084   0.117   0.118   0.136   0.166   0.199   0.212   0.226
  0.246   0.279   0.279   0.300   0.301   0.310   0.315   0.317
  0.324   0.327   0.371   0.378   0.387   0.398   0.422   0.428
  0.471   0.472   0.484   0.500   0.508   0.518   0.521   0.567
  0.573   0.574   0.582   0.583   0.586   0.608   0.625   0.645
  0.647   0.657   0.674   0.684   0.691   0.701   0.788   0.803
  0.805   0.812   0.830   0.831   0.865   0.867   0.912   0.942
  0.960   1.052   1.080   1.095   1.114   1.122   1.141   1.176
  1.187   1.193   1.194   1.197   1.229   1.246   1.268   1.301
  1.302   1.305   1.311   1.341   1.367   1.373   1.374   1.377
  1.389   1.390   1.398   1.400   1.431   1.431   1.435   1.451
  1.457   1.479   1.485   1.511   1.517   1.548   1.565   1.574
  1.584   1.596   1.610   1.613   1.659   1.672   1.677   1.678
  1.685   1.713   1.775   1.793   1.803   1.844   1.854   1.887
  1.914   2.043   2.114   2.120   2.199   2.264   2.281   2.323
  2.474   2.586   2.591   2.666   2.719   2.730   2.767   2.807
  2.824   2.833   2.844   2.848   2.882   2.909   2.941   2.941
  2.964   2.966   3.010   3.015   3.025   3.033   3.055   3.091
  3.100   3.110   3.127   3.133   3.142   3.157   3.160   3.172
  3.189   3.214   3.226   3.226   3.231   3.238   3.267   3.288
  3.299   3.314   3.334   3.361   3.363   3.381   3.382   3.391
  3.430   3.434   3.462   3.463   3.477   3.479   3.494   3.506
  3.579   3.595   3.607   3.640   3.670   3.692   3.693   3.731
  3.733   3.747   3.798   3.837   3.846   3.871   3.924   3.944
  3.975   4.002   4.039   4.135   4.206   4.240   4.352   4.397
  4.432   4.438   4.448   4.471   4.474   4.532   4.698   4.754
  4.891   4.905   4.972   5.203   5.257   5.507   5.648   5.741
  5.913   6.048   6.085   6.198   6.209   6.228   6.229   6.248
  6.261   6.319   6.363   6.380   6.383   6.445   6.460   6.528
  6.537   6.540   6.564   6.573   6.591   6.619   6.633   6.664
  6.726   6.782   6.885   6.967   6.969   6.986   7.021   7.042
  7.047   7.050   7.059   7.086   7.103   7.126   7.130   7.152
  7.168   7.168   7.190   7.210   7.222   7.273   7.285   7.315
  7.315   7.320   7.322   7.329   7.346   7.349   7.369   7.388
  7.427   7.469   7.492   7.506   7.511   7.542   7.617   7.618
  7.684   7.730   7.789   7.798   7.828   7.908   8.039   8.045
  8.074   8.093   8.095   8.275   8.305   8.377   8.411   8.639
  8.735   8.838   8.857   8.865   8.893   8.996   9.107   9.173
  9.889   9.928   9.940   9.965  10.021  10.605  10.614  10.640
 10.689  10.696  10.971  11.149  11.611  11.618  11.634  12.025
 12.947  13.056  13.370  14.209  14.697  15.904  15.907  16.136
 16.183  16.238  16.258  16.358  16.481  16.515  16.861  16.994
 17.305  17.505  18.140  18.142  18.159  18.161  18.190  18.232
 18.241  18.244  18.327  18.367  18.369  18.391  18.419  18.433
 18.724  18.727  18.831  18.857  18.871  18.912  18.919  18.965
 18.980  19.161  19.338  19.395  19.504  19.788  19.944  19.979
 21.385  21.488  21.634  22.124  22.460  25.085  25.105  25.130
 25.161  25.619  25.620  25.692  25.736  26.025  26.315  29.434
 31.190  31.200  31.220  31.448  32.174  32.291  37.534  38.094
 38.458  38.459  38.459  38.459  38.460  38.460  38.466  38.467
 38.478  38.479  38.480  38.484  38.521  38.525  38.527  38.560
 38.595  38.601  38.708  44.803  45.019  52.261  52.262  52.273
 52.276  52.295  52.318  52.324  52.326  52.425  52.427  52.441
 52.447  52.487  52.543  59.546  59.560  59.582  59.607  59.919
 59.923  60.011  60.071  60.147  60.249  60.356  60.452  60.520
 61.005  61.375  71.117  71.138  71.282  71.314  71.354  71.484
 71.489  81.538  83.034  83.042  83.060  83.238  83.834  83.918
101.051 101.051 101.051 101.052 101.052 101.053 101.054 101.054
101.056 101.056 101.059 101.060 101.060 101.060 101.062 101.063
101.063 101.063 101.066 101.066 101.072 101.072 106.433 106.876
107.378 116.494 116.701 122.236 122.236 122.236 122.237 122.237
122.238 122.240 122.241 122.245 122.245 122.245 122.248 122.264
122.265 122.266 122.280 122.301 122.308 136.564 136.574 136.594
136.615 136.902 136.903 136.965 137.002 137.251 137.389 141.576
141.577 141.584 141.586 141.598 141.614 141.618 141.621 141.698
141.699 141.708 141.716 141.741 141.774 180.261 180.306 180.378
180.619 180.780 219.362 223.624 223.631 223.646 223.794 224.274
224.364 245.035 245.035 245.054 245.055 245.069 245.073 245.077
245.087 245.088 290.933 290.944 290.998 291.006 291.026 291.068
291.075 298.072 298.450 298.889 307.777 307.789 307.801 307.824
308.058 308.058 308.116 308.147 308.354 308.466 317.770 317.975
557.665 557.705 557.748 557.920 558.024 585.335 720.854 720.860
720.874 721.011 721.443 721.541 840.985 841.314 841.6831394.278
*******2090.434
 --------------------------------------------------------------
 
          Ground-State Mulliken Net Atomic Charges

     Atom                 Charge (a.u.)
  ----------------------------------------
      1 O                    -0.431482
      2 Cl                    0.215741
      3 Cl                    0.215741
  ----------------------------------------
  Sum of atomic charges =     0.000000

 -----------------------------------------------------------------
                    Cartesian Multipole Moments
 -----------------------------------------------------------------
    Charge (ESU x 10^10)
                 0.0000
    Dipole Moment (Debye)
         X      -0.0000      Y       0.0000      Z      -0.5843
       Tot       0.5843
    Quadrupole Moments (Debye-Ang)
        XX     -31.0436     XY       0.0000     YY     -27.2906
        XZ       0.0000     YZ       0.0000     ZZ     -30.4008
    Octopole Moments (Debye-Ang^2)
       XXX      -0.0000    XXY      -0.0000    XYY      -0.0000
       YYY       0.0000    XXZ       0.8580    XYZ      -0.0000
       YYZ      -4.2155    XZZ       0.0000    YZZ      -0.0000
       ZZZ       1.3690
    Hexadecapole Moments (Debye-Ang^3)
      XXXX     -34.3573   XXXY       0.0000   XXYY     -62.0958
      XYYY       0.0000   YYYY    -296.2663   XXXZ       0.0000
      XXYZ       0.0000   XYYZ      -0.0000   YYYZ       0.0000
      XXZZ     -15.5376   XYZZ       0.0000   YYZZ     -59.2358
      XZZZ       0.0000   YZZZ       0.0000   ZZZZ     -56.7029
 -----------------------------------------------------------------
Archival summary:
1\1\n0010.cm1\SP\ProcedureUnspecified\BasisUnspecified\l21\diptarka\MonNov922:46:072020MonNov922:46:072020\0\\#,ProcedureUnspecified,BasisUnspecified,\\0,1\Cl\O,1,1.69586\Cl,2,1.69586,1,110.881\\\@

 Total job time:  2761.34s(wall), 49058.91s(cpu) 
 Mon Nov  9 22:46:07 2020

        *************************************************************
        *                                                           *
        *  Thank you very much for using Q-Chem.  Have a nice day.  *
        *                                                           *
        *************************************************************


 
User input: 4 of 6 
 
Q-Chem Developer Version!
                  Welcome to Q-Chem
     A Quantum Leap Into The Future Of Chemistry


 Q-Chem 5.1, Q-Chem, Inc., Pleasanton, CA (2018)

 Yihan Shao,  Zhengting Gan,  E. Epifanovsky,  A. T. B. Gilbert,  M. Wormit,  
 J. Kussmann,  A. W. Lange,  A. Behn,  Jia Deng,  Xintian Feng,  D. Ghosh,  
 M. Goldey,  P. R. Horn,  L. D. Jacobson,  I. Kaliman,  T. Kus,  A. Landau,  
 Jie Liu,  E. I. Proynov,  R. M. Richard,  R. P. Steele,  E. J. Sundstrom,  
 H. L. Woodcock III,  P. M. Zimmerman,  D. Zuev,  B. Albrecht,  E. Alguire,  
 S. A. Baeppler,  D. Barton,  Z. Benda,  Y. A. Bernard,  E. J. Berquist,  
 K. B. Bravaya,  H. Burton,  D. Casanova,  Chun-Min Chang,  Yunqing Chen,  
 A. Chien,  K. D. Closser,  M. P. Coons,  S. Coriani,  S. Dasgupta,  
 A. L. Dempwolff,  M. Diedenhofen,  Hainam Do,  R. G. Edgar,  Po-Tung Fang,  
 S. Faraji,  S. Fatehi,  Qingguo Feng,  K. D. Fenk,  J. Fosso-Tande,  
 Qinghui Ge,  A. Ghysels,  G. Gidofalvi,  J. Gomes,  J. Gonthier,  A. Gunina,  
 D. Hait,  M. W. D. Hanson-Heine,  P. H. P. Harbach,  A. W. Hauser,  
 J. E. Herr,  E. G. Hohenstein,  Z. C. Holden,  Kerwin Hui,  B. C. Huynh,  
 T.-C. Jagau,  Hyunjun Ji,  B. Kaduk,  K. Khistyaev,  Jaehoon Kim,  
 P. Klunzinger,  K. Koh,  D. Kosenkov,  L. Koulias,  T. Kowalczyk,  
 C. M. Krauter,  A. Kunitsa,  Ka Un Lao,  A. Laurent,  K. V. Lawler,  
 Joonho Lee,  D. Lefrancois,  S. Lehtola,  D. S. Levine,  Yi-Pei Li,  
 You-Sheng Lin,  Fenglai Liu,  E. Livshits,  A. Luenser,  P. Manohar,  
 E. Mansoor,  S. F. Manzer,  Shan-Ping Mao,  Yuezhi Mao,  N. Mardirossian,  
 A. V. Marenich,  T. Markovich,  L. A. Martinez-Martinez,  S. A. Maurer,  
 N. J. Mayhall,  S. C. McKenzie,  J.-M. Mewes,  A. F. Morrison,  
 J. W. Mullinax,  K. Nanda,  T. S. Nguyen-Beck,  R. Olivares-Amaya,  
 J. A. Parkhill,  T. M. Perrine,  F. Plasser,  P. Pokhilko,  S. Prager,  
 A. Prociuk,  E. Ramos,  D. R. Rehn,  F. Rob,  M. Schneider,  N. Sergueev,  
 S. M. Sharada,  S. Sharma,  D. W. Small,  T. Stauch,  T. Stein,  
 Yu-Chuan Su,  A. J. W. Thom,  A. Tkatchenko,  T. Tsuchimochi,  N. M. Tubman,  
 L. Vogt,  M. L. Vidal,  O. Vydrov,  M. A. Watson,  J. Wenzel,  
 M. de Wergifosse,  T. A. Wesolowski,  A. White,  J. Witte,  A. Yamada,  
 Jun Yang,  K. Yao,  S. Yeganeh,  S. R. Yost,  Zhi-Qiang You,  A. Zech,  
 Igor Ying Zhang,  Xing Zhang,  Yan Zhao,  Ying Zhu,  B. R. Brooks,  
 G. K. L. Chan,  C. J. Cramer,  M. S. Gordon,  W. J. Hehre,  A. Klamt,  
 M. W. Schmidt,  C. D. Sherrill,  D. G. Truhlar,  A. Aspuru-Guzik,  R. Baer,  
 A. T. Bell,  N. A. Besley,  Jeng-Da Chai,  A. E. DePrince, III,  
 R. A. DiStasio Jr.,  A. Dreuw,  B. D. Dunietz,  T. R. Furlani,  
 Chao-Ping Hsu,  Yousung Jung,  Jing Kong,  D. S. Lambrecht,  WanZhen Liang,  
 C. Ochsenfeld,  V. A. Rassolov,  L. V. Slipchenko,  J. E. Subotnik,  
 T. Van Voorhis,  J. M. Herbert,  A. I. Krylov,  P. M. W. Gill,  M. Head-Gordon

 Contributors to earlier versions of Q-Chem not listed above: 
 R. D. Adamson,  B. Austin,  J. Baker,  G. J. O. Beran,  K. Brandhorst,  
 S. T. Brown,  E. F. C. Byrd,  A. K. Chakraborty,  C.-L. Cheng,  
 Siu Hung Chien,  D. M. Chipman,  D. L. Crittenden,  H. Dachsel,  
 R. J. Doerksen,  A. D. Dutoi,  L. Fusti-Molnar,  W. A. Goddard III,  
 A. Golubeva-Zadorozhnaya,  S. R. Gwaltney,  G. Hawkins,  A. Heyden,  
 S. Hirata,  G. Kedziora,  F. J. Keil,  C. Kelley,  Jihan Kim,  R. A. King,  
 R. Z. Khaliullin,  P. P. Korambath,  W. Kurlancheek,  A. M. Lee,  M. S. Lee,  
 S. V. Levchenko,  Ching Yeh Lin,  D. Liotard,  R. C. Lochan,  I. Lotan,  
 P. E. Maslen,  N. Nair,  D. P. O'Neill,  D. Neuhauser,  E. Neuscamman,  
 C. M. Oana,  R. Olson,  B. Peters,  R. Peverati,  P. A. Pieniazek,  
 Y. M. Rhee,  J. Ritchie,  M. A. Rohrdanz,  E. Rosta,  N. J. Russ,  
 H. F. Schaefer III,  N. E. Schultz,  N. Shenvi,  A. C. Simmonett,  A. Sodt,  
 D. Stuck,  K. S. Thanthiriwatte,  V. Vanovschi,  Tao Wang,  A. Warshel,  
 C. F. Williams,  Q. Wu,  X. Xu,  W. Zhang

 Please cite Q-Chem as follows:
 Y. Shao et al., Mol. Phys. 113, 184-215 (2015)
 DOI: 10.1080/00268976.2014.952696

 Q-Chem 5.1.1 for Intel X86 EM64T Linux

 Parts of Q-Chem use Armadillo 8.300.2 (Tropical Shenanigans).
 http://arma.sourceforge.net/

 Q-Chem begins on Mon Nov  9 22:46:07 2020  

Host: n0010.cm1
0

     Scratch files written to /local/scratch/users/diptarka/qchem11888//
The previous job contains 0 fragments, simply inherited here
Input Ideriv = 0
Curr. Ideriv = -1
Max.  Ideriv = 0
Analytic post-HF gradients are not available with non-HF exchange
Input Ideriv = 0
Curr. Ideriv = 0
Max.  Ideriv = 0

Checking the input file for inconsistencies... 	...done.

--------------------------------------------------------------
User input:
--------------------------------------------------------------
$molecule
read
$end

$rem

jobtype sp
exchange wb97m(2)
xc_grid 000099000590
basis aug-cc-pcV5Z
max_scf_cycles 200
thresh 14
scf_convergence 7
mem_total 128000
cc_memory 96000
cc_backend xm
mem_static 1500
symmetry false
sym_ignore true
scf_guess read
unrestricted false
scf_algorithm gdm
n_frozen_core 500
$end

$multipole_field
Z 0.0001
$end



--------------------------------------------------------------
 ----------------------------------------------------------------
             Standard Nuclear Orientation (Angstroms)
    I     Atom           X                Y                Z
 ----------------------------------------------------------------
    1      O       0.0000000000     0.0000000000     0.7788000000
    2      Cl      0.0000000000     1.3966000000    -0.1832000000
    3      Cl      0.0000000000    -1.3966000000    -0.1832000000
 ----------------------------------------------------------------
 Nuclear Repulsion Energy =   139.6267478090 hartrees
 There are       21 alpha and       21 beta electrons
 Requested basis set is aug-cc-pCV5Z
 There are 135 shells and 615 basis functions

 Total QAlloc Memory Limit 128000 MB
 Mega-Array Size      1467 MB
 MEM_STATIC part      1500 MB

                       Distance Matrix (Angstroms)
             O (  1)   Cl(  2)
   Cl(  2)  1.695858
   Cl(  3)  1.695858  2.793200
 
 Applying Cartesian multipole field
    Component          Value
    ---------          -----
     (0,0,1)        1.00000E-04
 Nucleus-field energy     =     0.0000003024 hartrees
 A cutoff of  1.0D-14 yielded   7830 shell pairs
 There are    169762 function pairs (    341029 Cartesian)
 
 -------------------------------------------------------
 OpenMP Integral Computing Module                       
 Release: version 1.0, May 2013, Q-Chem Inc. Pittsburgh 
 -------------------------------------------------------
 Integral Job Info:
 Integral job number is                      11
 Integral operator is                         1
 short-range coefficients              15000000
 long-range coefficients              100000000
 Omega coefficients                         300
 if combine SR and LR in K                    1
 Integral screening is                        0
 Integral computing path is                   2
 max size of driver memory is           6400000
 size of driver memory is               5498286
 size of scratch memory is             28955960
 max col of scratch BK array             194481
 max len of scratch array in speh3         5572
 max len of scratch index in speh4           72
 max int batch size is                      520
 min int batch size is                       52
 fixed nKL is                                24
 max L of basis functions is                  5
 order of int derivative is                   0
 number of shells is                        135
 number of basis is                         865
 number of cartesian basis is               865
 number of contracted shell pairs          7830
 number of primitive shell pairs          14650
 maxK2 (contraction) of shell pair          121
 max number of K2 of shell pair               1
 max number of CS2 of shell pair            731
 max number of PS2 of shell pair            836
 mem total for path MDJ                 1756632
 -------------------------------------------------------
 Smallest overlap matrix eigenvalue = 1.80E-05
 Guess MOs from SCF MO coefficient file
 Reading MOs from coefficient file
 Reading MOs from coefficient file
 Long-range K will be added via erf
 Coulomb attenuation parameter = 0.3 bohr**(-1)
 A restricted hybrid HF-DFT SCF calculation will be
 performed using Geometric Direct Minimization
 Exchange:     0.1500 Hartree-Fock + 1.0000 wB97M-V + LR-HF
 Correlation:  1.0000 wB97M-V
 Using Euler-Maclaurin-Lebedev (99,590) quadrature formula
 Nonlocal Correlation:  VV10 with C = 0.0100 and b = 6.00 and scale = 1.00000
 Grid used for NLC:  SG-1 standard quadrature
 SCF converges when RMS gradient is below 1.0E-07
Using Q-Chem read-in guess as SCF_GUESS READ specified.

 using 32 threads for integral computing
 -------------------------------------------------------
 OpenMP Integral computing Module                
 Release: version 1.0, May 2013, Q-Chem Inc. Pittsburgh 
 -------------------------------------------------------
 using 32 threads for integral computing
 -------------------------------------------------------
 OpenMP Integral computing Module                
 Release: version 1.0, May 2013, Q-Chem Inc. Pittsburgh 
 -------------------------------------------------------
TIMEINFO->: J/JK contribution 5371.82 sec.
 -------------------------------------------------------
 OpenMP BLAS3 based DFT computing Module                
 Release: version 1.0, May 2013, Q-Chem Inc. Pittsburgh 
 -------------------------------------------------------
 -------------------------------------------------------
 OpenMP BLAS3 based DFT computing Module                
 Release: version 1.0, May 2013, Q-Chem Inc. Pittsburgh 
 -------------------------------------------------------
 -------------------------------------------------------
 OpenMP BLAS3 based DFT computing Module                
 Release: version 1.0, May 2013, Q-Chem Inc. Pittsburgh 
 -------------------------------------------------------
 ---------------------------------------
  Cycle       Energy        RMS Gradient
 ---------------------------------------
    1    -995.5249988156      1.49E-08 Normal BFGS step
TIMEINFO->: J/JK contribution 5372.33 sec.
 Nonlocal correlation =     0.0561119462
    2    -995.5249988156      2.46E-08 Convergence criterion met
 ---------------------------------------
 wB97M-V orbitals are now ready for the wB97M(2) calculation.
 wB97M(2) energy = Exch (0.62194 SRHF + 1.0 LRHF + wB97M(2)_EXCH) + 
               Corr (wB97M(2)_CORR + 0.34096 MP2 + 0.65904 VV10(b=10))
 SCF time:  CPU 21295.11 s  wall 1209.97 s
 SCF   energy in the final basis set = -995.31054376
 Total energy in the final basis set = -995.31054376

 Q-Chem fatal error occurred in module libmdc/qalloc.C, line 49:

 Illegal memory length in mega_alloc


 Please submit a crash report at q-chem.com/reporter 
 
 
 
User input: 5 of 6 
 
Q-Chem Developer Version!
                  Welcome to Q-Chem
     A Quantum Leap Into The Future Of Chemistry


 Q-Chem 5.1, Q-Chem, Inc., Pleasanton, CA (2018)

 Yihan Shao,  Zhengting Gan,  E. Epifanovsky,  A. T. B. Gilbert,  M. Wormit,  
 J. Kussmann,  A. W. Lange,  A. Behn,  Jia Deng,  Xintian Feng,  D. Ghosh,  
 M. Goldey,  P. R. Horn,  L. D. Jacobson,  I. Kaliman,  T. Kus,  A. Landau,  
 Jie Liu,  E. I. Proynov,  R. M. Richard,  R. P. Steele,  E. J. Sundstrom,  
 H. L. Woodcock III,  P. M. Zimmerman,  D. Zuev,  B. Albrecht,  E. Alguire,  
 S. A. Baeppler,  D. Barton,  Z. Benda,  Y. A. Bernard,  E. J. Berquist,  
 K. B. Bravaya,  H. Burton,  D. Casanova,  Chun-Min Chang,  Yunqing Chen,  
 A. Chien,  K. D. Closser,  M. P. Coons,  S. Coriani,  S. Dasgupta,  
 A. L. Dempwolff,  M. Diedenhofen,  Hainam Do,  R. G. Edgar,  Po-Tung Fang,  
 S. Faraji,  S. Fatehi,  Qingguo Feng,  K. D. Fenk,  J. Fosso-Tande,  
 Qinghui Ge,  A. Ghysels,  G. Gidofalvi,  J. Gomes,  J. Gonthier,  A. Gunina,  
 D. Hait,  M. W. D. Hanson-Heine,  P. H. P. Harbach,  A. W. Hauser,  
 J. E. Herr,  E. G. Hohenstein,  Z. C. Holden,  Kerwin Hui,  B. C. Huynh,  
 T.-C. Jagau,  Hyunjun Ji,  B. Kaduk,  K. Khistyaev,  Jaehoon Kim,  
 P. Klunzinger,  K. Koh,  D. Kosenkov,  L. Koulias,  T. Kowalczyk,  
 C. M. Krauter,  A. Kunitsa,  Ka Un Lao,  A. Laurent,  K. V. Lawler,  
 Joonho Lee,  D. Lefrancois,  S. Lehtola,  D. S. Levine,  Yi-Pei Li,  
 You-Sheng Lin,  Fenglai Liu,  E. Livshits,  A. Luenser,  P. Manohar,  
 E. Mansoor,  S. F. Manzer,  Shan-Ping Mao,  Yuezhi Mao,  N. Mardirossian,  
 A. V. Marenich,  T. Markovich,  L. A. Martinez-Martinez,  S. A. Maurer,  
 N. J. Mayhall,  S. C. McKenzie,  J.-M. Mewes,  A. F. Morrison,  
 J. W. Mullinax,  K. Nanda,  T. S. Nguyen-Beck,  R. Olivares-Amaya,  
 J. A. Parkhill,  T. M. Perrine,  F. Plasser,  P. Pokhilko,  S. Prager,  
 A. Prociuk,  E. Ramos,  D. R. Rehn,  F. Rob,  M. Schneider,  N. Sergueev,  
 S. M. Sharada,  S. Sharma,  D. W. Small,  T. Stauch,  T. Stein,  
 Yu-Chuan Su,  A. J. W. Thom,  A. Tkatchenko,  T. Tsuchimochi,  N. M. Tubman,  
 L. Vogt,  M. L. Vidal,  O. Vydrov,  M. A. Watson,  J. Wenzel,  
 M. de Wergifosse,  T. A. Wesolowski,  A. White,  J. Witte,  A. Yamada,  
 Jun Yang,  K. Yao,  S. Yeganeh,  S. R. Yost,  Zhi-Qiang You,  A. Zech,  
 Igor Ying Zhang,  Xing Zhang,  Yan Zhao,  Ying Zhu,  B. R. Brooks,  
 G. K. L. Chan,  C. J. Cramer,  M. S. Gordon,  W. J. Hehre,  A. Klamt,  
 M. W. Schmidt,  C. D. Sherrill,  D. G. Truhlar,  A. Aspuru-Guzik,  R. Baer,  
 A. T. Bell,  N. A. Besley,  Jeng-Da Chai,  A. E. DePrince, III,  
 R. A. DiStasio Jr.,  A. Dreuw,  B. D. Dunietz,  T. R. Furlani,  
 Chao-Ping Hsu,  Yousung Jung,  Jing Kong,  D. S. Lambrecht,  WanZhen Liang,  
 C. Ochsenfeld,  V. A. Rassolov,  L. V. Slipchenko,  J. E. Subotnik,  
 T. Van Voorhis,  J. M. Herbert,  A. I. Krylov,  P. M. W. Gill,  M. Head-Gordon

 Contributors to earlier versions of Q-Chem not listed above: 
 R. D. Adamson,  B. Austin,  J. Baker,  G. J. O. Beran,  K. Brandhorst,  
 S. T. Brown,  E. F. C. Byrd,  A. K. Chakraborty,  C.-L. Cheng,  
 Siu Hung Chien,  D. M. Chipman,  D. L. Crittenden,  H. Dachsel,  
 R. J. Doerksen,  A. D. Dutoi,  L. Fusti-Molnar,  W. A. Goddard III,  
 A. Golubeva-Zadorozhnaya,  S. R. Gwaltney,  G. Hawkins,  A. Heyden,  
 S. Hirata,  G. Kedziora,  F. J. Keil,  C. Kelley,  Jihan Kim,  R. A. King,  
 R. Z. Khaliullin,  P. P. Korambath,  W. Kurlancheek,  A. M. Lee,  M. S. Lee,  
 S. V. Levchenko,  Ching Yeh Lin,  D. Liotard,  R. C. Lochan,  I. Lotan,  
 P. E. Maslen,  N. Nair,  D. P. O'Neill,  D. Neuhauser,  E. Neuscamman,  
 C. M. Oana,  R. Olson,  B. Peters,  R. Peverati,  P. A. Pieniazek,  
 Y. M. Rhee,  J. Ritchie,  M. A. Rohrdanz,  E. Rosta,  N. J. Russ,  
 H. F. Schaefer III,  N. E. Schultz,  N. Shenvi,  A. C. Simmonett,  A. Sodt,  
 D. Stuck,  K. S. Thanthiriwatte,  V. Vanovschi,  Tao Wang,  A. Warshel,  
 C. F. Williams,  Q. Wu,  X. Xu,  W. Zhang

 Please cite Q-Chem as follows:
 Y. Shao et al., Mol. Phys. 113, 184-215 (2015)
 DOI: 10.1080/00268976.2014.952696

 Q-Chem 5.1.1 for Intel X86 EM64T Linux

 Parts of Q-Chem use Armadillo 8.300.2 (Tropical Shenanigans).
 http://arma.sourceforge.net/

 Q-Chem begins on Mon Nov  9 23:06:29 2020  

Host: n0010.cm1
0

     Scratch files written to /local/scratch/users/diptarka/qchem11888//
The previous job contains 0 fragments, simply inherited here
Input Ideriv = 2
Curr. Ideriv = -1
Max.  Ideriv = 2
Input Ideriv = 1
Curr. Ideriv = 2
Max.  Ideriv = 1

Checking the input file for inconsistencies... 	...done.

--------------------------------------------------------------
User input:
--------------------------------------------------------------
$molecule
read
$end

$rem

jobtype sp
method wb97m-v
xc_grid 000099000590
basis aug-cc-pcV5Z
max_scf_cycles 200
thresh 14
scf_convergence 7
mem_total 128000
cc_memory 96000
cc_backend xm
mem_static 1500
symmetry false
sym_ignore true
scf_guess read
unrestricted false
scf_algorithm gdm
n_frozen_core 500
gen_scfman true
$end

$multipole_field
Z -0.0001
$end



--------------------------------------------------------------
 ----------------------------------------------------------------
             Standard Nuclear Orientation (Angstroms)
    I     Atom           X                Y                Z
 ----------------------------------------------------------------
    1      O       0.0000000000     0.0000000000     0.7788000000
    2      Cl      0.0000000000     1.3966000000    -0.1832000000
    3      Cl      0.0000000000    -1.3966000000    -0.1832000000
 ----------------------------------------------------------------
 Nuclear Repulsion Energy =   139.6267478090 hartrees
 There are       21 alpha and       21 beta electrons
 Requested basis set is aug-cc-pCV5Z
 There are 135 shells and 615 basis functions

 Total QAlloc Memory Limit 128000 MB
 Mega-Array Size      1467 MB
 MEM_STATIC part      1500 MB

                       Distance Matrix (Angstroms)
             O (  1)   Cl(  2)
   Cl(  2)  1.695858
   Cl(  3)  1.695858  2.793200
 
 Applying Cartesian multipole field
    Component          Value
    ---------          -----
     (0,0,1)       -1.00000E-04
 Nucleus-field energy     =    -0.0000003024 hartrees
 A cutoff of  1.0D-14 yielded   7830 shell pairs
 There are    169762 function pairs (    341029 Cartesian)
 
 -------------------------------------------------------
 OpenMP Integral Computing Module                       
 Release: version 1.0, May 2013, Q-Chem Inc. Pittsburgh 
 -------------------------------------------------------
 Integral Job Info:
 Integral job number is                      11
 Integral operator is                         1
 short-range coefficients              15000000
 long-range coefficients              100000000
 Omega coefficients                         300
 if combine SR and LR in K                    1
 Integral screening is                        0
 Integral computing path is                   2
 max size of driver memory is           6400000
 size of driver memory is               5498286
 size of scratch memory is             28955960
 max col of scratch BK array             194481
 max len of scratch array in speh3         5572
 max len of scratch index in speh4           72
 max int batch size is                      520
 min int batch size is                       52
 fixed nKL is                                24
 max L of basis functions is                  5
 order of int derivative is                   0
 number of shells is                        135
 number of basis is                         865
 number of cartesian basis is               865
 number of contracted shell pairs          7830
 number of primitive shell pairs          14650
 maxK2 (contraction) of shell pair          121
 max number of K2 of shell pair               1
 max number of CS2 of shell pair            731
 max number of PS2 of shell pair            836
 mem total for path MDJ                 1756632
 -------------------------------------------------------
 Smallest overlap matrix eigenvalue = 1.80E-05
 Guess MOs from SCF MO coefficient file

 -----------------------------------------------------------------------
  General SCF calculation program by
  Eric Jon Sundstrom, Paul Horn, Yuezhi Mao, Dmitri Zuev, Alec White,
  David Stuck, Shaama M.S., Shane Yost, Joonho Lee, David Small,
  Daniel Levine, Susi Lehtola, Hugh Burton, Evgeny Epifanovsky
 -----------------------------------------------------------------------
 Exchange:     0.1500 Hartree-Fock + 1.0000 wB97M-V + LR-HF
 Correlation:  1.0000 wB97M-V
 Using Euler-Maclaurin-Lebedev (99,590) quadrature formula
 Nonlocal Correlation:  VV10 with C = 0.0100 and b = 6.00 and scale = 1.00000
 Grid used for NLC:  SG-1 standard quadrature
 using 32 threads for integral computing
 -------------------------------------------------------
 OpenMP Integral computing Module                
 Release: version 1.0, May 2013, Q-Chem Inc. Pittsburgh 
 -------------------------------------------------------
 using 32 threads for integral computing
 -------------------------------------------------------
 OpenMP Integral computing Module                
 Release: version 1.0, May 2013, Q-Chem Inc. Pittsburgh 
 -------------------------------------------------------
 -------------------------------------------------------
 OpenMP BLAS3 based DFT computing Module                
 Release: version 1.0, May 2013, Q-Chem Inc. Pittsburgh 
 -------------------------------------------------------
 -------------------------------------------------------
 OpenMP BLAS3 based DFT computing Module                
 Release: version 1.0, May 2013, Q-Chem Inc. Pittsburgh 
 -------------------------------------------------------
 -------------------------------------------------------
 OpenMP BLAS3 based DFT computing Module                
 Release: version 1.0, May 2013, Q-Chem Inc. Pittsburgh 
 -------------------------------------------------------
 Nonlocal correlation = 0.174026007221
 A restricted SCF calculation will be
 performed using GDM
 SCF converges when RMS gradient is below 1.0e-07
 ---------------------------------------
  Cycle       Energy        RMS Gradient
 ---------------------------------------
 Nonlocal correlation = 1.740255840358e-01
    1    -995.5249528392      3.29e-04   Normal BFGS step
 Nonlocal correlation = 1.740261682474e-01
    2    -995.5249532492      2.43e-04   Normal BFGS step
 Nonlocal correlation = 1.740258905626e-01
    3    -995.5249534332      7.36e-05   Normal BFGS step
 Nonlocal correlation = 1.740259244771e-01
    4    -995.5249534726      2.44e-05   Normal BFGS step
 Nonlocal correlation = 1.740259315446e-01
    5    -995.5249534803      4.47e-06   Normal BFGS step
 Nonlocal correlation = 1.740259295329e-01
    6    -995.5249534804      2.50e-06   Normal BFGS step
 Nonlocal correlation = 1.740259287166e-01
    7    -995.5249534804      1.10e-06   Normal BFGS step
 Nonlocal correlation = 1.740259290996e-01
    8    -995.5249534804      1.40e-07   Normal BFGS step
 Nonlocal correlation = 1.740259290911e-01
    9    -995.5249534804      6.48e-08  Convergence criterion met
 ---------------------------------------
 SCF time:   CPU 54420.99s  wall 3059.00s 
 SCF   energy in the final basis set =     -995.5249534804
 Total energy in the final basis set =     -995.5249534804
 
 --------------------------------------------------------------
 
                    Orbital Energies (a.u.)
 --------------------------------------------------------------
 
 Alpha MOs
 -- Occupied --
*******-101.936 -19.465  -9.707  -9.707  -7.416  -7.416  -7.402
 -7.402  -7.402  -7.402  -1.241  -0.994  -0.891  -0.631  -0.595
 -0.582  -0.456  -0.448  -0.434  -0.393
 -- Virtual --
 -0.043   0.017   0.036   0.055   0.056   0.057   0.083   0.084
  0.084   0.117   0.118   0.136   0.166   0.199   0.211   0.227
  0.246   0.279   0.279   0.300   0.301   0.310   0.315   0.317
  0.324   0.327   0.371   0.378   0.387   0.398   0.422   0.429
  0.471   0.472   0.484   0.500   0.508   0.519   0.521   0.567
  0.573   0.574   0.582   0.583   0.586   0.608   0.625   0.645
  0.647   0.657   0.674   0.684   0.691   0.701   0.788   0.803
  0.805   0.812   0.830   0.831   0.865   0.867   0.912   0.942
  0.960   1.052   1.080   1.095   1.114   1.122   1.141   1.176
  1.187   1.193   1.194   1.198   1.229   1.246   1.268   1.301
  1.302   1.305   1.311   1.341   1.367   1.373   1.374   1.377
  1.390   1.390   1.398   1.400   1.431   1.431   1.435   1.451
  1.457   1.479   1.485   1.510   1.517   1.548   1.565   1.574
  1.584   1.596   1.610   1.613   1.659   1.672   1.677   1.678
  1.685   1.713   1.775   1.793   1.803   1.845   1.853   1.887
  1.914   2.043   2.114   2.120   2.199   2.264   2.281   2.323
  2.474   2.586   2.591   2.666   2.719   2.730   2.767   2.807
  2.825   2.833   2.844   2.848   2.882   2.909   2.941   2.941
  2.964   2.966   3.010   3.015   3.025   3.033   3.055   3.091
  3.100   3.110   3.127   3.133   3.142   3.157   3.160   3.172
  3.189   3.214   3.226   3.226   3.231   3.238   3.267   3.288
  3.299   3.314   3.334   3.361   3.363   3.381   3.382   3.390
  3.430   3.434   3.462   3.462   3.477   3.479   3.494   3.506
  3.579   3.595   3.607   3.640   3.670   3.692   3.693   3.731
  3.733   3.747   3.798   3.837   3.846   3.871   3.924   3.944
  3.975   4.001   4.039   4.135   4.206   4.240   4.352   4.397
  4.432   4.438   4.448   4.471   4.474   4.532   4.698   4.754
  4.891   4.905   4.972   5.203   5.257   5.507   5.648   5.741
  5.913   6.048   6.085   6.198   6.209   6.228   6.229   6.248
  6.261   6.319   6.363   6.380   6.383   6.445   6.460   6.528
  6.537   6.540   6.564   6.573   6.591   6.619   6.633   6.664
  6.726   6.782   6.885   6.967   6.969   6.986   7.021   7.042
  7.047   7.050   7.059   7.086   7.103   7.126   7.130   7.152
  7.168   7.168   7.190   7.210   7.222   7.273   7.285   7.315
  7.315   7.320   7.322   7.329   7.346   7.349   7.369   7.388
  7.427   7.468   7.492   7.506   7.511   7.542   7.617   7.618
  7.684   7.730   7.789   7.798   7.828   7.908   8.039   8.045
  8.074   8.093   8.095   8.276   8.305   8.377   8.411   8.639
  8.735   8.838   8.857   8.865   8.893   8.996   9.107   9.173
  9.889   9.928   9.940   9.965  10.021  10.605  10.613  10.640
 10.689  10.696  10.971  11.149  11.611  11.618  11.634  12.025
 12.947  13.056  13.370  14.209  14.697  15.904  15.907  16.136
 16.183  16.238  16.258  16.358  16.481  16.515  16.861  16.994
 17.305  17.505  18.140  18.142  18.159  18.161  18.190  18.232
 18.241  18.244  18.327  18.367  18.369  18.391  18.418  18.433
 18.724  18.727  18.831  18.857  18.871  18.912  18.919  18.965
 18.980  19.161  19.338  19.395  19.504  19.788  19.944  19.979
 21.385  21.488  21.634  22.124  22.460  25.085  25.105  25.130
 25.161  25.619  25.620  25.692  25.736  26.025  26.315  29.434
 31.190  31.200  31.220  31.448  32.174  32.291  37.534  38.094
 38.458  38.459  38.459  38.459  38.460  38.460  38.466  38.467
 38.478  38.479  38.480  38.484  38.521  38.525  38.527  38.560
 38.595  38.601  38.708  44.803  45.019  52.261  52.262  52.273
 52.276  52.295  52.318  52.324  52.326  52.425  52.427  52.441
 52.447  52.487  52.543  59.546  59.560  59.582  59.607  59.919
 59.923  60.011  60.071  60.147  60.249  60.356  60.452  60.520
 61.005  61.375  71.117  71.138  71.282  71.314  71.354  71.484
 71.489  81.538  83.034  83.042  83.060  83.238  83.834  83.918
101.051 101.051 101.051 101.052 101.052 101.052 101.054 101.054
101.056 101.056 101.059 101.060 101.060 101.060 101.062 101.063
101.063 101.063 101.066 101.066 101.072 101.072 106.433 106.876
107.378 116.494 116.701 122.236 122.236 122.236 122.237 122.237
122.237 122.240 122.241 122.245 122.245 122.245 122.248 122.264
122.265 122.266 122.280 122.301 122.308 136.564 136.574 136.594
136.615 136.902 136.903 136.965 137.002 137.251 137.389 141.576
141.577 141.584 141.586 141.598 141.614 141.618 141.621 141.698
141.699 141.708 141.716 141.741 141.774 180.261 180.306 180.378
180.619 180.780 219.362 223.624 223.631 223.646 223.794 224.274
224.364 245.035 245.035 245.053 245.055 245.069 245.073 245.077
245.087 245.088 290.933 290.944 290.998 291.006 291.026 291.068
291.075 298.072 298.450 298.889 307.777 307.789 307.801 307.824
308.058 308.058 308.116 308.147 308.354 308.466 317.770 317.975
557.665 557.705 557.748 557.920 558.024 585.335 720.854 720.860
720.874 721.011 721.443 721.541 840.985 841.314 841.6831394.278
*******2090.434
 --------------------------------------------------------------
 
          Ground-State Mulliken Net Atomic Charges

     Atom                 Charge (a.u.)
  ----------------------------------------
      1 O                    -0.430690
      2 Cl                    0.215345
      3 Cl                    0.215345
  ----------------------------------------
  Sum of atomic charges =     0.000000

 -----------------------------------------------------------------
                    Cartesian Multipole Moments
 -----------------------------------------------------------------
    Charge (ESU x 10^10)
                 0.0000
    Dipole Moment (Debye)
         X       0.0000      Y      -0.0000      Z      -0.5680
       Tot       0.5680
    Quadrupole Moments (Debye-Ang)
        XX     -31.0444     XY       0.0000     YY     -27.2927
        XZ       0.0000     YZ       0.0000     ZZ     -30.4023
    Octopole Moments (Debye-Ang^2)
       XXX       0.0000    XXY      -0.0000    XYY       0.0000
       YYY      -0.0000    XXZ       0.8694    XYZ       0.0000
       YYZ      -4.1790    XZZ      -0.0000    YZZ      -0.0000
       ZZZ       1.4079
    Hexadecapole Moments (Debye-Ang^3)
      XXXX     -34.3620   XXXY      -0.0000   XXYY     -62.0977
      XYYY       0.0000   YYYY    -296.2683   XXXZ      -0.0000
      XXYZ      -0.0000   XYYZ       0.0000   YYYZ       0.0000
      XXZZ     -15.5411   XYZZ       0.0000   YYZZ     -59.2452
      XZZZ       0.0000   YZZZ      -0.0000   ZZZZ     -56.7109
 -----------------------------------------------------------------
Archival summary:
1\1\n0010.cm1\SP\ProcedureUnspecified\BasisUnspecified\l21\diptarka\MonNov923:57:382020MonNov923:57:382020\0\\#,ProcedureUnspecified,BasisUnspecified,\\0,1\Cl\O,1,1.69586\Cl,2,1.69586,1,110.881\\\@

 Total job time:  3069.07s(wall), 54468.72s(cpu) 
 Mon Nov  9 23:57:38 2020

        *************************************************************
        *                                                           *
        *  Thank you very much for using Q-Chem.  Have a nice day.  *
        *                                                           *
        *************************************************************


 
User input: 6 of 6 
 
Q-Chem Developer Version!
                  Welcome to Q-Chem
     A Quantum Leap Into The Future Of Chemistry


 Q-Chem 5.1, Q-Chem, Inc., Pleasanton, CA (2018)

 Yihan Shao,  Zhengting Gan,  E. Epifanovsky,  A. T. B. Gilbert,  M. Wormit,  
 J. Kussmann,  A. W. Lange,  A. Behn,  Jia Deng,  Xintian Feng,  D. Ghosh,  
 M. Goldey,  P. R. Horn,  L. D. Jacobson,  I. Kaliman,  T. Kus,  A. Landau,  
 Jie Liu,  E. I. Proynov,  R. M. Richard,  R. P. Steele,  E. J. Sundstrom,  
 H. L. Woodcock III,  P. M. Zimmerman,  D. Zuev,  B. Albrecht,  E. Alguire,  
 S. A. Baeppler,  D. Barton,  Z. Benda,  Y. A. Bernard,  E. J. Berquist,  
 K. B. Bravaya,  H. Burton,  D. Casanova,  Chun-Min Chang,  Yunqing Chen,  
 A. Chien,  K. D. Closser,  M. P. Coons,  S. Coriani,  S. Dasgupta,  
 A. L. Dempwolff,  M. Diedenhofen,  Hainam Do,  R. G. Edgar,  Po-Tung Fang,  
 S. Faraji,  S. Fatehi,  Qingguo Feng,  K. D. Fenk,  J. Fosso-Tande,  
 Qinghui Ge,  A. Ghysels,  G. Gidofalvi,  J. Gomes,  J. Gonthier,  A. Gunina,  
 D. Hait,  M. W. D. Hanson-Heine,  P. H. P. Harbach,  A. W. Hauser,  
 J. E. Herr,  E. G. Hohenstein,  Z. C. Holden,  Kerwin Hui,  B. C. Huynh,  
 T.-C. Jagau,  Hyunjun Ji,  B. Kaduk,  K. Khistyaev,  Jaehoon Kim,  
 P. Klunzinger,  K. Koh,  D. Kosenkov,  L. Koulias,  T. Kowalczyk,  
 C. M. Krauter,  A. Kunitsa,  Ka Un Lao,  A. Laurent,  K. V. Lawler,  
 Joonho Lee,  D. Lefrancois,  S. Lehtola,  D. S. Levine,  Yi-Pei Li,  
 You-Sheng Lin,  Fenglai Liu,  E. Livshits,  A. Luenser,  P. Manohar,  
 E. Mansoor,  S. F. Manzer,  Shan-Ping Mao,  Yuezhi Mao,  N. Mardirossian,  
 A. V. Marenich,  T. Markovich,  L. A. Martinez-Martinez,  S. A. Maurer,  
 N. J. Mayhall,  S. C. McKenzie,  J.-M. Mewes,  A. F. Morrison,  
 J. W. Mullinax,  K. Nanda,  T. S. Nguyen-Beck,  R. Olivares-Amaya,  
 J. A. Parkhill,  T. M. Perrine,  F. Plasser,  P. Pokhilko,  S. Prager,  
 A. Prociuk,  E. Ramos,  D. R. Rehn,  F. Rob,  M. Schneider,  N. Sergueev,  
 S. M. Sharada,  S. Sharma,  D. W. Small,  T. Stauch,  T. Stein,  
 Yu-Chuan Su,  A. J. W. Thom,  A. Tkatchenko,  T. Tsuchimochi,  N. M. Tubman,  
 L. Vogt,  M. L. Vidal,  O. Vydrov,  M. A. Watson,  J. Wenzel,  
 M. de Wergifosse,  T. A. Wesolowski,  A. White,  J. Witte,  A. Yamada,  
 Jun Yang,  K. Yao,  S. Yeganeh,  S. R. Yost,  Zhi-Qiang You,  A. Zech,  
 Igor Ying Zhang,  Xing Zhang,  Yan Zhao,  Ying Zhu,  B. R. Brooks,  
 G. K. L. Chan,  C. J. Cramer,  M. S. Gordon,  W. J. Hehre,  A. Klamt,  
 M. W. Schmidt,  C. D. Sherrill,  D. G. Truhlar,  A. Aspuru-Guzik,  R. Baer,  
 A. T. Bell,  N. A. Besley,  Jeng-Da Chai,  A. E. DePrince, III,  
 R. A. DiStasio Jr.,  A. Dreuw,  B. D. Dunietz,  T. R. Furlani,  
 Chao-Ping Hsu,  Yousung Jung,  Jing Kong,  D. S. Lambrecht,  WanZhen Liang,  
 C. Ochsenfeld,  V. A. Rassolov,  L. V. Slipchenko,  J. E. Subotnik,  
 T. Van Voorhis,  J. M. Herbert,  A. I. Krylov,  P. M. W. Gill,  M. Head-Gordon

 Contributors to earlier versions of Q-Chem not listed above: 
 R. D. Adamson,  B. Austin,  J. Baker,  G. J. O. Beran,  K. Brandhorst,  
 S. T. Brown,  E. F. C. Byrd,  A. K. Chakraborty,  C.-L. Cheng,  
 Siu Hung Chien,  D. M. Chipman,  D. L. Crittenden,  H. Dachsel,  
 R. J. Doerksen,  A. D. Dutoi,  L. Fusti-Molnar,  W. A. Goddard III,  
 A. Golubeva-Zadorozhnaya,  S. R. Gwaltney,  G. Hawkins,  A. Heyden,  
 S. Hirata,  G. Kedziora,  F. J. Keil,  C. Kelley,  Jihan Kim,  R. A. King,  
 R. Z. Khaliullin,  P. P. Korambath,  W. Kurlancheek,  A. M. Lee,  M. S. Lee,  
 S. V. Levchenko,  Ching Yeh Lin,  D. Liotard,  R. C. Lochan,  I. Lotan,  
 P. E. Maslen,  N. Nair,  D. P. O'Neill,  D. Neuhauser,  E. Neuscamman,  
 C. M. Oana,  R. Olson,  B. Peters,  R. Peverati,  P. A. Pieniazek,  
 Y. M. Rhee,  J. Ritchie,  M. A. Rohrdanz,  E. Rosta,  N. J. Russ,  
 H. F. Schaefer III,  N. E. Schultz,  N. Shenvi,  A. C. Simmonett,  A. Sodt,  
 D. Stuck,  K. S. Thanthiriwatte,  V. Vanovschi,  Tao Wang,  A. Warshel,  
 C. F. Williams,  Q. Wu,  X. Xu,  W. Zhang

 Please cite Q-Chem as follows:
 Y. Shao et al., Mol. Phys. 113, 184-215 (2015)
 DOI: 10.1080/00268976.2014.952696

 Q-Chem 5.1.1 for Intel X86 EM64T Linux

 Parts of Q-Chem use Armadillo 8.300.2 (Tropical Shenanigans).
 http://arma.sourceforge.net/

 Q-Chem begins on Mon Nov  9 23:57:38 2020  

Host: n0010.cm1
0

     Scratch files written to /local/scratch/users/diptarka/qchem11888//
The previous job contains 0 fragments, simply inherited here
Input Ideriv = 0
Curr. Ideriv = -1
Max.  Ideriv = 0
Analytic post-HF gradients are not available with non-HF exchange
Input Ideriv = 0
Curr. Ideriv = 0
Max.  Ideriv = 0

Checking the input file for inconsistencies... 	...done.

--------------------------------------------------------------
User input:
--------------------------------------------------------------
$molecule
read
$end

$rem

jobtype sp
exchange wb97m(2)
xc_grid 000099000590
basis aug-cc-pcV5Z
max_scf_cycles 200
thresh 14
scf_convergence 7
mem_total 128000
cc_memory 96000
cc_backend xm
mem_static 1500
symmetry false
sym_ignore true
scf_guess read
unrestricted false
scf_algorithm gdm
n_frozen_core 500
$end

$multipole_field
Z -0.0001
$end

--------------------------------------------------------------
 ----------------------------------------------------------------
             Standard Nuclear Orientation (Angstroms)
    I     Atom           X                Y                Z
 ----------------------------------------------------------------
    1      O       0.0000000000     0.0000000000     0.7788000000
    2      Cl      0.0000000000     1.3966000000    -0.1832000000
    3      Cl      0.0000000000    -1.3966000000    -0.1832000000
 ----------------------------------------------------------------
 Nuclear Repulsion Energy =   139.6267478090 hartrees
 There are       21 alpha and       21 beta electrons
 Requested basis set is aug-cc-pCV5Z
 There are 135 shells and 615 basis functions

 Total QAlloc Memory Limit 128000 MB
 Mega-Array Size      1467 MB
 MEM_STATIC part      1500 MB

                       Distance Matrix (Angstroms)
             O (  1)   Cl(  2)
   Cl(  2)  1.695858
   Cl(  3)  1.695858  2.793200
 
 Applying Cartesian multipole field
    Component          Value
    ---------          -----
     (0,0,1)       -1.00000E-04
 Nucleus-field energy     =    -0.0000003024 hartrees
 A cutoff of  1.0D-14 yielded   7830 shell pairs
 There are    169762 function pairs (    341029 Cartesian)
 
 -------------------------------------------------------
 OpenMP Integral Computing Module                       
 Release: version 1.0, May 2013, Q-Chem Inc. Pittsburgh 
 -------------------------------------------------------
 Integral Job Info:
 Integral job number is                      11
 Integral operator is                         1
 short-range coefficients              15000000
 long-range coefficients              100000000
 Omega coefficients                         300
 if combine SR and LR in K                    1
 Integral screening is                        0
 Integral computing path is                   2
 max size of driver memory is           6400000
 size of driver memory is               5498286
 size of scratch memory is             28955960
 max col of scratch BK array             194481
 max len of scratch array in speh3         5572
 max len of scratch index in speh4           72
 max int batch size is                      520
 min int batch size is                       52
 fixed nKL is                                24
 max L of basis functions is                  5
 order of int derivative is                   0
 number of shells is                        135
 number of basis is                         865
 number of cartesian basis is               865
 number of contracted shell pairs          7830
 number of primitive shell pairs          14650
 maxK2 (contraction) of shell pair          121
 max number of K2 of shell pair               1
 max number of CS2 of shell pair            731
 max number of PS2 of shell pair            836
 mem total for path MDJ                 1756632
 -------------------------------------------------------
 Smallest overlap matrix eigenvalue = 1.80E-05
 Guess MOs from SCF MO coefficient file
 Reading MOs from coefficient file
 Reading MOs from coefficient file
 Long-range K will be added via erf
 Coulomb attenuation parameter = 0.3 bohr**(-1)
 A restricted hybrid HF-DFT SCF calculation will be
 performed using Geometric Direct Minimization
 Exchange:     0.1500 Hartree-Fock + 1.0000 wB97M-V + LR-HF
 Correlation:  1.0000 wB97M-V
 Using Euler-Maclaurin-Lebedev (99,590) quadrature formula
 Nonlocal Correlation:  VV10 with C = 0.0100 and b = 6.00 and scale = 1.00000
 Grid used for NLC:  SG-1 standard quadrature
 SCF converges when RMS gradient is below 1.0E-07
Using Q-Chem read-in guess as SCF_GUESS READ specified.

 using 32 threads for integral computing
 -------------------------------------------------------
 OpenMP Integral computing Module                
 Release: version 1.0, May 2013, Q-Chem Inc. Pittsburgh 
 -------------------------------------------------------
 using 32 threads for integral computing
 -------------------------------------------------------
 OpenMP Integral computing Module                
 Release: version 1.0, May 2013, Q-Chem Inc. Pittsburgh 
 -------------------------------------------------------
TIMEINFO->: J/JK contribution 5387.56 sec.
 -------------------------------------------------------
 OpenMP BLAS3 based DFT computing Module                
 Release: version 1.0, May 2013, Q-Chem Inc. Pittsburgh 
 -------------------------------------------------------
 -------------------------------------------------------
 OpenMP BLAS3 based DFT computing Module                
 Release: version 1.0, May 2013, Q-Chem Inc. Pittsburgh 
 -------------------------------------------------------
 -------------------------------------------------------
 OpenMP BLAS3 based DFT computing Module                
 Release: version 1.0, May 2013, Q-Chem Inc. Pittsburgh 
 -------------------------------------------------------
 ---------------------------------------
  Cycle       Energy        RMS Gradient
 ---------------------------------------
    1    -995.5249534804      8.84E-09 Normal BFGS step
TIMEINFO->: J/JK contribution 5376.16 sec.
   GDM::WARNING energy changes are now smaller than effective accuracy.
   GDM::        calculation will continue, but THRESH should be increased
   GDM::        or SCF_CONVERGENCE decreased.
   GDM::        effective_thresh =   2.100000000000000E-010
 Nonlocal correlation =     0.0561119224
    2    -995.5249534804      7.41E-09 Convergence criterion met
 ---------------------------------------
 wB97M-V orbitals are now ready for the wB97M(2) calculation.
 wB97M(2) energy = Exch (0.62194 SRHF + 1.0 LRHF + wB97M(2)_EXCH) + 
               Corr (wB97M(2)_CORR + 0.34096 MP2 + 0.65904 VV10(b=10))
 SCF time:  CPU 21308.22 s  wall 1212.71 s
 SCF   energy in the final basis set = -995.31049279
 Total energy in the final basis set = -995.31049279

 Q-Chem fatal error occurred in module libmdc/qalloc.C, line 49:

 Illegal memory length in mega_alloc


 Please submit a crash report at q-chem.com/reporter 
 
 
