Q-Chem Developer Version!
                  Welcome to Q-Chem
     A Quantum Leap Into The Future Of Chemistry


 Q-Chem 5.1, Q-Chem, Inc., Pleasanton, CA (2018)

 Yihan Shao,  Zhengting Gan,  E. Epifanovsky,  A. T. B. Gilbert,  M. Wormit,  
 J. Kussmann,  A. W. Lange,  A. Behn,  Jia Deng,  Xintian Feng,  D. Ghosh,  
 M. Goldey,  P. R. Horn,  L. D. Jacobson,  I. Kaliman,  T. Kus,  A. Landau,  
 Jie Liu,  E. I. Proynov,  R. M. Richard,  R. P. Steele,  E. J. Sundstrom,  
 H. L. Woodcock III,  P. M. Zimmerman,  D. Zuev,  B. Albrecht,  E. Alguire,  
 S. A. Baeppler,  D. Barton,  Z. Benda,  Y. A. Bernard,  E. J. Berquist,  
 K. B. Bravaya,  H. Burton,  D. Casanova,  Chun-Min Chang,  Yunqing Chen,  
 A. Chien,  K. D. Closser,  M. P. Coons,  S. Coriani,  S. Dasgupta,  
 A. L. Dempwolff,  M. Diedenhofen,  Hainam Do,  R. G. Edgar,  Po-Tung Fang,  
 S. Faraji,  S. Fatehi,  Qingguo Feng,  K. D. Fenk,  J. Fosso-Tande,  
 Qinghui Ge,  A. Ghysels,  G. Gidofalvi,  J. Gomes,  J. Gonthier,  A. Gunina,  
 D. Hait,  M. W. D. Hanson-Heine,  P. H. P. Harbach,  A. W. Hauser,  
 J. E. Herr,  E. G. Hohenstein,  Z. C. Holden,  Kerwin Hui,  B. C. Huynh,  
 T.-C. Jagau,  Hyunjun Ji,  B. Kaduk,  K. Khistyaev,  Jaehoon Kim,  
 P. Klunzinger,  K. Koh,  D. Kosenkov,  L. Koulias,  T. Kowalczyk,  
 C. M. Krauter,  A. Kunitsa,  Ka Un Lao,  A. Laurent,  K. V. Lawler,  
 Joonho Lee,  D. Lefrancois,  S. Lehtola,  D. S. Levine,  Yi-Pei Li,  
 You-Sheng Lin,  Fenglai Liu,  E. Livshits,  A. Luenser,  P. Manohar,  
 E. Mansoor,  S. F. Manzer,  Shan-Ping Mao,  Yuezhi Mao,  N. Mardirossian,  
 A. V. Marenich,  T. Markovich,  L. A. Martinez-Martinez,  S. A. Maurer,  
 N. J. Mayhall,  S. C. McKenzie,  J.-M. Mewes,  A. F. Morrison,  
 J. W. Mullinax,  K. Nanda,  T. S. Nguyen-Beck,  R. Olivares-Amaya,  
 J. A. Parkhill,  T. M. Perrine,  F. Plasser,  P. Pokhilko,  S. Prager,  
 A. Prociuk,  E. Ramos,  D. R. Rehn,  F. Rob,  M. Schneider,  N. Sergueev,  
 S. M. Sharada,  S. Sharma,  D. W. Small,  T. Stauch,  T. Stein,  
 Yu-Chuan Su,  A. J. W. Thom,  A. Tkatchenko,  T. Tsuchimochi,  N. M. Tubman,  
 L. Vogt,  M. L. Vidal,  O. Vydrov,  M. A. Watson,  J. Wenzel,  
 M. de Wergifosse,  T. A. Wesolowski,  A. White,  J. Witte,  A. Yamada,  
 Jun Yang,  K. Yao,  S. Yeganeh,  S. R. Yost,  Zhi-Qiang You,  A. Zech,  
 Igor Ying Zhang,  Xing Zhang,  Yan Zhao,  Ying Zhu,  B. R. Brooks,  
 G. K. L. Chan,  C. J. Cramer,  M. S. Gordon,  W. J. Hehre,  A. Klamt,  
 M. W. Schmidt,  C. D. Sherrill,  D. G. Truhlar,  A. Aspuru-Guzik,  R. Baer,  
 A. T. Bell,  N. A. Besley,  Jeng-Da Chai,  A. E. DePrince, III,  
 R. A. DiStasio Jr.,  A. Dreuw,  B. D. Dunietz,  T. R. Furlani,  
 Chao-Ping Hsu,  Yousung Jung,  Jing Kong,  D. S. Lambrecht,  WanZhen Liang,  
 C. Ochsenfeld,  V. A. Rassolov,  L. V. Slipchenko,  J. E. Subotnik,  
 T. Van Voorhis,  J. M. Herbert,  A. I. Krylov,  P. M. W. Gill,  M. Head-Gordon

 Contributors to earlier versions of Q-Chem not listed above: 
 R. D. Adamson,  B. Austin,  J. Baker,  G. J. O. Beran,  K. Brandhorst,  
 S. T. Brown,  E. F. C. Byrd,  A. K. Chakraborty,  C.-L. Cheng,  
 Siu Hung Chien,  D. M. Chipman,  D. L. Crittenden,  H. Dachsel,  
 R. J. Doerksen,  A. D. Dutoi,  L. Fusti-Molnar,  W. A. Goddard III,  
 A. Golubeva-Zadorozhnaya,  S. R. Gwaltney,  G. Hawkins,  A. Heyden,  
 S. Hirata,  G. Kedziora,  F. J. Keil,  C. Kelley,  Jihan Kim,  R. A. King,  
 R. Z. Khaliullin,  P. P. Korambath,  W. Kurlancheek,  A. M. Lee,  M. S. Lee,  
 S. V. Levchenko,  Ching Yeh Lin,  D. Liotard,  R. C. Lochan,  I. Lotan,  
 P. E. Maslen,  N. Nair,  D. P. O'Neill,  D. Neuhauser,  E. Neuscamman,  
 C. M. Oana,  R. Olson,  B. Peters,  R. Peverati,  P. A. Pieniazek,  
 Y. M. Rhee,  J. Ritchie,  M. A. Rohrdanz,  E. Rosta,  N. J. Russ,  
 H. F. Schaefer III,  N. E. Schultz,  N. Shenvi,  A. C. Simmonett,  A. Sodt,  
 D. Stuck,  K. S. Thanthiriwatte,  V. Vanovschi,  Tao Wang,  A. Warshel,  
 C. F. Williams,  Q. Wu,  X. Xu,  W. Zhang

 Please cite Q-Chem as follows:
 Y. Shao et al., Mol. Phys. 113, 184-215 (2015)
 DOI: 10.1080/00268976.2014.952696

 Q-Chem 5.1.1 for Intel X86 EM64T Linux

 Parts of Q-Chem use Armadillo 8.300.2 (Tropical Shenanigans).
 http://arma.sourceforge.net/

 Q-Chem begins on Fri Nov  6 12:29:38 2020  

Host: n0075.mhg0
0

     Scratch files written to /local/scratch/users/yhljason/P_wB97M2_aug-cc-pcVQZ.inp20201106122541//
Input Ideriv = 1
Curr. Ideriv = -1
Max.  Ideriv = 1

Checking the input file for inconsistencies... 	...done.

--------------------------------------------------------------
User input:
--------------------------------------------------------------
$molecule
0 4
P
$end

$rem
jobtype sp
method wB97M-V
xc_grid 000099000590
basis aug-cc-pcVQZ
max_scf_cycles 200
thresh 14
scf_convergence 8
scf_algorithm gdm
symmetry false
sym_ignore true
unrestricted false
gen_scfman true
internal_stability_iter 15
internal_stability_davidson_iter 200
mem_total 128000
n_frozen_core 0
$end



--------------------------------------------------------------
 ----------------------------------------------------------------
             Standard Nuclear Orientation (Angstroms)
    I     Atom           X                Y                Z
 ----------------------------------------------------------------
    1      P       0.0000000000     0.0000000000     0.0000000000
 ----------------------------------------------------------------
 Nuclear Repulsion Energy =     0.0000000000 hartrees
 There are        9 alpha and        6 beta electrons
 Requested basis set is aug-cc-pCVQZ
 There are 34 shells and 134 basis functions

 Total QAlloc Memory Limit 128000 MB
 Mega-Array Size       188 MB
 MEM_STATIC part       192 MB
 A cutoff of  1.0D-14 yielded    595 shell pairs
 There are      9355 function pairs (     15897 Cartesian)
 
 -------------------------------------------------------
 OpenMP Integral Computing Module                       
 Release: version 1.0, May 2013, Q-Chem Inc. Pittsburgh 
 -------------------------------------------------------
 Integral Job Info:
 Integral job number is                      11
 Integral operator is                         1
 short-range coefficients              15000000
 long-range coefficients              100000000
 Omega coefficients                         300
 if combine SR and LR in K                    1
 Integral screening is                        0
 Integral computing path is                   2
 max size of driver memory is           3200000
 size of driver memory is               1704330
 size of scratch memory is             28840424
 max col of scratch BK array              50625
 max len of scratch array in speh3         2114
 max len of scratch index in speh4           50
 max int batch size is                      520
 min int batch size is                       52
 fixed nKL is                                21
 max L of basis functions is                  4
 order of int derivative is                   0
 number of shells is                         34
 number of basis is                         174
 number of cartesian basis is               174
 number of contracted shell pairs           595
 number of primitive shell pairs           3860
 maxK2 (contraction) of shell pair          169
 max number of K2 of shell pair               1
 max number of CS2 of shell pair             49
 max number of PS2 of shell pair           1014
 mem total for path MDJ                  631630
 -------------------------------------------------------
 Smallest overlap matrix eigenvalue = 3.31E-05

 Scale SEOQF with 1.000000e-01/1.000000e-01/1.000000e-01

 Standard Electronic Orientation quadrupole field applied
 Guess from superposition of atomic densities
 Warning:  Energy on first SCF cycle will be non-variational
 SAD guess density has 15.000000 electrons

 -----------------------------------------------------------------------
  General SCF calculation program by
  Eric Jon Sundstrom, Paul Horn, Yuezhi Mao, Dmitri Zuev, Alec White,
  David Stuck, Shaama M.S., Shane Yost, Joonho Lee, David Small,
  Daniel Levine, Susi Lehtola, Hugh Burton, Evgeny Epifanovsky
 -----------------------------------------------------------------------
 Exchange:     0.1500 Hartree-Fock + 1.0000 wB97M-V + LR-HF
 Correlation:  1.0000 wB97M-V
 Using Euler-Maclaurin-Lebedev (99,590) quadrature formula
 Nonlocal Correlation:  VV10 with C = 0.0100 and b = 6.00 and scale = 1.00000
 Grid used for NLC:  SG-1 standard quadrature
Running Object-Oriented ROKS (ROHF)
ROHF occupied orbitals are orthonormal
ROHF occupied orbitals are orthogonal to virtual orbitals
ROHF virtual orbitals are orthonormal
 Nonlocal correlation = 0.064502175782
We will preform up to 15 macro iterations over saddle points until a stable solution is found
Energy prior to optimization (guess energy) = -341.247168947844
Begin Timing: Total SCF Calculation
Begin Timing: SCF Single Stationary Point Calculation
begin iterations for algorithm: GDM          
the SCF tolerance is set to 1.00e-08
 Nonlocal correlation = 6.446690118939e-02
    1    -341.2471689478      3.26e-02     00000  Normal BFGS step
 Nonlocal correlation = 6.445846746476e-02
    2    -341.2515457124      4.06e-03     00000  Normal BFGS step
 Nonlocal correlation = 6.445675198339e-02
    3    -341.2516106215      8.67e-04     00000  Normal BFGS step
 Nonlocal correlation = 6.445709596038e-02
    4    -341.2516130651      2.41e-04     00000  Normal BFGS step
 Nonlocal correlation = 6.445711168491e-02
    5    -341.2516132005      4.22e-05     00000  Normal BFGS step
 Nonlocal correlation = 6.445711498523e-02
    6    -341.2516132058      7.42e-06     00000  Normal BFGS step
 Nonlocal correlation = 6.445711432906e-02
    7    -341.2516132059      8.17e-07     00000  Normal BFGS step
 Nonlocal correlation = 6.445711413864e-02
    8    -341.2516132059      1.30e-07     00000  Normal BFGS step
 Nonlocal correlation = 6.445711411811e-02
    9    -341.2516132059      1.28e-08     00000  Normal BFGS step
 Nonlocal correlation = 6.445711411788e-02
   10    -341.2516132059      2.07e-09     00000 Convergence criterion met
The disked orbital energies are calculated using alpha and beta Focks
Timing for Single Stationary Point: 29.00s (wall), 430.03s (cpu)
Begin Timing: Stability
===================================================
Beginning Test for Internal Stability
===================================================
generating davidson guess vectors based on koopmans-like excitations
computing hessian-vector products by finite difference
 Nonlocal correlation = 0.064457114059
 Nonlocal correlation = 0.064457114177
 Nonlocal correlation = 0.064457114290
 Nonlocal correlation = 0.064457113946
 Nonlocal correlation = 0.064457114118
    1      9.86e-01     00000 Davidson Iteration
computing hessian-vector products by finite difference
 Nonlocal correlation = 6.445711383913e-02
 Nonlocal correlation = 6.445711439413e-02
 Nonlocal correlation = 6.445711394251e-02
 Nonlocal correlation = 6.445711429095e-02
 Nonlocal correlation = 6.445711411788e-02
    2      2.52e-01     00000 Davidson Iteration
computing hessian-vector products by finite difference
 Nonlocal correlation = 6.445711455969e-02
 Nonlocal correlation = 6.445711367109e-02
 Nonlocal correlation = 6.445711327810e-02
 Nonlocal correlation = 6.445711495157e-02
 Nonlocal correlation = 6.445711411788e-02
    3      6.70e-02     00000 Davidson Iteration
computing hessian-vector products by finite difference
 Nonlocal correlation = 6.445711401006e-02
 Nonlocal correlation = 6.445711422612e-02
 Nonlocal correlation = 6.445711423075e-02
 Nonlocal correlation = 6.445711400547e-02
 Nonlocal correlation = 6.445711411788e-02
    4      5.85e-02     00000 Davidson Iteration
computing hessian-vector products by finite difference
 Nonlocal correlation = 6.445711250504e-02
 Nonlocal correlation = 6.445711572733e-02
 Nonlocal correlation = 6.445711146537e-02
 Nonlocal correlation = 6.445711677057e-02
 Nonlocal correlation = 6.445711411788e-02
    5      3.15e-01     00000 Davidson Iteration
computing hessian-vector products by finite difference
 Nonlocal correlation = 6.445710777026e-02
 Nonlocal correlation = 6.445712046692e-02
 Nonlocal correlation = 6.445710437879e-02
 Nonlocal correlation = 6.445712385713e-02
 Nonlocal correlation = 6.445711411788e-02
    6      6.95e-02     00000 Davidson Iteration
computing hessian-vector products by finite difference
 Nonlocal correlation = 6.445714239613e-02
 Nonlocal correlation = 6.445708583757e-02
 Nonlocal correlation = 6.445707421316e-02
 Nonlocal correlation = 6.445715402104e-02
 Nonlocal correlation = 6.445711411788e-02
    7      1.79e-02     00000 Davidson Iteration
computing hessian-vector products by finite difference
 Nonlocal correlation = 6.445723802166e-02
 Nonlocal correlation = 6.445699022082e-02
 Nonlocal correlation = 6.445702201957e-02
 Nonlocal correlation = 6.445720622335e-02
 Nonlocal correlation = 6.445711411788e-02
    8      5.64e-03     00000 Davidson Iteration
computing hessian-vector products by finite difference
 Nonlocal correlation = 6.445705735783e-02
 Nonlocal correlation = 6.445717086962e-02
 Nonlocal correlation = 6.445705036905e-02
 Nonlocal correlation = 6.445717786003e-02
 Nonlocal correlation = 6.445711411788e-02
    9      1.69e-03     00000 Davidson Iteration
computing hessian-vector products by finite difference
 Nonlocal correlation = 6.445705878019e-02
 Nonlocal correlation = 6.445716946880e-02
 Nonlocal correlation = 6.445707963534e-02
 Nonlocal correlation = 6.445714861459e-02
 Nonlocal correlation = 6.445711411788e-02
   10      4.34e-04     00000 Davidson Converged
converged_eigenvalues
   0.4495
   0.4495
Threshold for negative eigenvalues: -1.0e-05
solution was a local minimum (stable)
===================================================
End Test for Internal Stability
===================================================
Our SCF solution is stable!
The disked orbital energies are calculated using alpha and beta Focks
Timing for Total SCF: 191.00s (wall), 2852.14s (cpu)
 Total energy in the final basis set =     -341.2516132059
<S^2> =          3.750000000
    ==================================================
              The end of Object-Oriented SCFman       
    ==================================================
 
 --------------------------------------------------------------
 
                    Orbital Energies (a.u.)
 --------------------------------------------------------------
 
 Alpha MOs
 -- Occupied --
-77.409  -6.759  -4.874  -4.874  -4.874  -0.705  -0.346  -0.346
 -0.346
 -- Virtual --
  0.044   0.053   0.053   0.053   0.139   0.139   0.139   0.139
  0.139   0.322   0.322   0.322   0.355   0.399   0.399   0.399
  0.399   0.399   0.399   0.399   0.367   0.367   0.367   0.367
  0.367   0.985   0.985   0.985   0.985   0.985   1.132   1.132
  1.132   1.132   1.132   1.132   1.132   1.132   1.132   1.092
  1.092   1.092   1.092   1.092   1.092   1.092   1.138   1.138
  1.138   1.401   2.592   2.592   2.592   2.592   2.592   2.719
  2.719   2.719   2.719   2.719   2.719   2.719   2.993   2.993
  2.993   2.993   2.993   2.993   2.993   2.993   2.993   4.197
  4.197   4.197   6.144   8.201   8.201   8.201   8.201   8.201
 13.671  13.671  13.671  15.865  15.865  15.865  15.865  15.865
 15.865  15.865  22.280  26.676  26.676  26.676  26.676  26.676
 39.451  39.451  39.451  46.405  46.405  46.405  46.405  46.405
 46.405  46.405  46.405  46.405  56.546  56.546  56.546  56.546
 56.546  56.546  56.546  67.051  79.535  79.535  79.535  79.538
 79.538 124.330 124.330 124.330 322.109
 
 Beta MOs
 -- Occupied --
-77.396  -6.746  -4.852  -4.852  -4.852  -0.586
 -- Virtual --
 -0.020  -0.020  -0.020   0.039   0.050   0.050   0.050   0.139
  0.139   0.139   0.139   0.139   0.331   0.331   0.331   0.368
  0.393   0.393   0.393   0.393   0.393   0.393   0.393   0.427
  0.427   0.427   0.427   0.427   1.050   1.050   1.050   1.050
  1.050   1.154   1.154   1.154   1.154   1.154   1.154   1.154
  1.154   1.154   1.170   1.170   1.170   1.170   1.170   1.170
  1.170   1.235   1.235   1.235   1.520   2.703   2.703   2.703
  2.703   2.703   2.871   2.871   2.871   2.871   2.871   2.871
  2.871   3.177   3.177   3.177   3.177   3.177   3.177   3.177
  3.177   3.177   4.296   4.296   4.296   6.206   8.284   8.284
  8.284   8.284   8.284  13.764  13.764  13.764  15.870  15.870
 15.870  15.870  15.870  15.870  15.870  22.324  26.710  26.710
 26.710  26.710  26.710  39.494  39.494  39.494  46.423  46.423
 46.423  46.423  46.423  46.423  46.423  46.423  46.423  56.573
 56.573  56.573  56.573  56.574  56.574  56.574  67.089  79.570
 79.570  79.570  79.573  79.573 124.349 124.349 124.349 322.133
 --------------------------------------------------------------
 
          Ground-State Mulliken Net Atomic Charges

     Atom                 Charge (a.u.)
  ----------------------------------------
      1 P                    -0.000000
  ----------------------------------------
  Sum of atomic charges =    -0.000000

 -----------------------------------------------------------------
                    Cartesian Multipole Moments
 -----------------------------------------------------------------
    Charge (ESU x 10^10)
                -0.0000
    Dipole Moment (Debye)
         X       0.0000      Y       0.0000      Z       0.0000
       Tot       0.0000
    Quadrupole Moments (Debye-Ang)
        XX     -13.7492     XY      -0.0000     YY     -13.7492
        XZ      -0.0000     YZ       0.0000     ZZ     -13.7492
    Octopole Moments (Debye-Ang^2)
       XXX      -0.0000    XXY      -0.0000    XYY      -0.0000
       YYY      -0.0000    XXZ       0.0000    XYZ      -0.0000
       YYZ       0.0000    XZZ      -0.0000    YZZ      -0.0000
       ZZZ       0.0000
    Hexadecapole Moments (Debye-Ang^3)
      XXXX     -23.6041   XXXY      -0.0000   XXYY      -7.8680
      XYYY      -0.0000   YYYY     -23.6041   XXXZ      -0.0000
      XXYZ       0.0000   XYYZ      -0.0000   YYYZ       0.0000
      XXZZ      -7.8680   XYZZ      -0.0000   YYZZ      -7.8680
      XZZZ      -0.0000   YZZZ       0.0000   ZZZZ     -23.6041
 -----------------------------------------------------------------

 STANDARD THERMODYNAMIC QUANTITIES AT   298.15 K  AND     1.00 ATM

   Translational Enthalpy:        0.889 kcal/mol
   Rotational Enthalpy:           0.000 kcal/mol
   Vibrational Enthalpy:          0.000 kcal/mol
   gas constant (RT):             0.592 kcal/mol
   Translational Entropy:        36.224  cal/mol.K
   Rotational Entropy:            0.000  cal/mol.K
   Vibrational Entropy:           0.000  cal/mol.K

   Total Enthalpy:                1.481 kcal/mol
   Total Entropy:                36.224  cal/mol.K

 -----------------------------------------------------------------

Archival summary:
1\1\n0075.mhg0\SP\ROProcedureUnspecified\BasisUnspecified\1(4)\yhljason\FriNov612:32:522020FriNov612:32:522020\0\\#,ROProcedureUnspecified,BasisUnspecified,\\0,4\P\\\@

 Total job time:  194.04s(wall), 2898.01s(cpu) 
 Fri Nov  6 12:32:52 2020

        *************************************************************
        *                                                           *
        *  Thank you very much for using Q-Chem.  Have a nice day.  *
        *                                                           *
        *************************************************************


 
User input: 2 of 6 
 
Q-Chem Developer Version!
                  Welcome to Q-Chem
     A Quantum Leap Into The Future Of Chemistry


 Q-Chem 5.1, Q-Chem, Inc., Pleasanton, CA (2018)

 Yihan Shao,  Zhengting Gan,  E. Epifanovsky,  A. T. B. Gilbert,  M. Wormit,  
 J. Kussmann,  A. W. Lange,  A. Behn,  Jia Deng,  Xintian Feng,  D. Ghosh,  
 M. Goldey,  P. R. Horn,  L. D. Jacobson,  I. Kaliman,  T. Kus,  A. Landau,  
 Jie Liu,  E. I. Proynov,  R. M. Richard,  R. P. Steele,  E. J. Sundstrom,  
 H. L. Woodcock III,  P. M. Zimmerman,  D. Zuev,  B. Albrecht,  E. Alguire,  
 S. A. Baeppler,  D. Barton,  Z. Benda,  Y. A. Bernard,  E. J. Berquist,  
 K. B. Bravaya,  H. Burton,  D. Casanova,  Chun-Min Chang,  Yunqing Chen,  
 A. Chien,  K. D. Closser,  M. P. Coons,  S. Coriani,  S. Dasgupta,  
 A. L. Dempwolff,  M. Diedenhofen,  Hainam Do,  R. G. Edgar,  Po-Tung Fang,  
 S. Faraji,  S. Fatehi,  Qingguo Feng,  K. D. Fenk,  J. Fosso-Tande,  
 Qinghui Ge,  A. Ghysels,  G. Gidofalvi,  J. Gomes,  J. Gonthier,  A. Gunina,  
 D. Hait,  M. W. D. Hanson-Heine,  P. H. P. Harbach,  A. W. Hauser,  
 J. E. Herr,  E. G. Hohenstein,  Z. C. Holden,  Kerwin Hui,  B. C. Huynh,  
 T.-C. Jagau,  Hyunjun Ji,  B. Kaduk,  K. Khistyaev,  Jaehoon Kim,  
 P. Klunzinger,  K. Koh,  D. Kosenkov,  L. Koulias,  T. Kowalczyk,  
 C. M. Krauter,  A. Kunitsa,  Ka Un Lao,  A. Laurent,  K. V. Lawler,  
 Joonho Lee,  D. Lefrancois,  S. Lehtola,  D. S. Levine,  Yi-Pei Li,  
 You-Sheng Lin,  Fenglai Liu,  E. Livshits,  A. Luenser,  P. Manohar,  
 E. Mansoor,  S. F. Manzer,  Shan-Ping Mao,  Yuezhi Mao,  N. Mardirossian,  
 A. V. Marenich,  T. Markovich,  L. A. Martinez-Martinez,  S. A. Maurer,  
 N. J. Mayhall,  S. C. McKenzie,  J.-M. Mewes,  A. F. Morrison,  
 J. W. Mullinax,  K. Nanda,  T. S. Nguyen-Beck,  R. Olivares-Amaya,  
 J. A. Parkhill,  T. M. Perrine,  F. Plasser,  P. Pokhilko,  S. Prager,  
 A. Prociuk,  E. Ramos,  D. R. Rehn,  F. Rob,  M. Schneider,  N. Sergueev,  
 S. M. Sharada,  S. Sharma,  D. W. Small,  T. Stauch,  T. Stein,  
 Yu-Chuan Su,  A. J. W. Thom,  A. Tkatchenko,  T. Tsuchimochi,  N. M. Tubman,  
 L. Vogt,  M. L. Vidal,  O. Vydrov,  M. A. Watson,  J. Wenzel,  
 M. de Wergifosse,  T. A. Wesolowski,  A. White,  J. Witte,  A. Yamada,  
 Jun Yang,  K. Yao,  S. Yeganeh,  S. R. Yost,  Zhi-Qiang You,  A. Zech,  
 Igor Ying Zhang,  Xing Zhang,  Yan Zhao,  Ying Zhu,  B. R. Brooks,  
 G. K. L. Chan,  C. J. Cramer,  M. S. Gordon,  W. J. Hehre,  A. Klamt,  
 M. W. Schmidt,  C. D. Sherrill,  D. G. Truhlar,  A. Aspuru-Guzik,  R. Baer,  
 A. T. Bell,  N. A. Besley,  Jeng-Da Chai,  A. E. DePrince, III,  
 R. A. DiStasio Jr.,  A. Dreuw,  B. D. Dunietz,  T. R. Furlani,  
 Chao-Ping Hsu,  Yousung Jung,  Jing Kong,  D. S. Lambrecht,  WanZhen Liang,  
 C. Ochsenfeld,  V. A. Rassolov,  L. V. Slipchenko,  J. E. Subotnik,  
 T. Van Voorhis,  J. M. Herbert,  A. I. Krylov,  P. M. W. Gill,  M. Head-Gordon

 Contributors to earlier versions of Q-Chem not listed above: 
 R. D. Adamson,  B. Austin,  J. Baker,  G. J. O. Beran,  K. Brandhorst,  
 S. T. Brown,  E. F. C. Byrd,  A. K. Chakraborty,  C.-L. Cheng,  
 Siu Hung Chien,  D. M. Chipman,  D. L. Crittenden,  H. Dachsel,  
 R. J. Doerksen,  A. D. Dutoi,  L. Fusti-Molnar,  W. A. Goddard III,  
 A. Golubeva-Zadorozhnaya,  S. R. Gwaltney,  G. Hawkins,  A. Heyden,  
 S. Hirata,  G. Kedziora,  F. J. Keil,  C. Kelley,  Jihan Kim,  R. A. King,  
 R. Z. Khaliullin,  P. P. Korambath,  W. Kurlancheek,  A. M. Lee,  M. S. Lee,  
 S. V. Levchenko,  Ching Yeh Lin,  D. Liotard,  R. C. Lochan,  I. Lotan,  
 P. E. Maslen,  N. Nair,  D. P. O'Neill,  D. Neuhauser,  E. Neuscamman,  
 C. M. Oana,  R. Olson,  B. Peters,  R. Peverati,  P. A. Pieniazek,  
 Y. M. Rhee,  J. Ritchie,  M. A. Rohrdanz,  E. Rosta,  N. J. Russ,  
 H. F. Schaefer III,  N. E. Schultz,  N. Shenvi,  A. C. Simmonett,  A. Sodt,  
 D. Stuck,  K. S. Thanthiriwatte,  V. Vanovschi,  Tao Wang,  A. Warshel,  
 C. F. Williams,  Q. Wu,  X. Xu,  W. Zhang

 Please cite Q-Chem as follows:
 Y. Shao et al., Mol. Phys. 113, 184-215 (2015)
 DOI: 10.1080/00268976.2014.952696

 Q-Chem 5.1.1 for Intel X86 EM64T Linux

 Parts of Q-Chem use Armadillo 8.300.2 (Tropical Shenanigans).
 http://arma.sourceforge.net/

 Q-Chem begins on Fri Nov  6 12:32:53 2020  

Host: n0075.mhg0
0

     Scratch files written to /local/scratch/users/yhljason/P_wB97M2_aug-cc-pcVQZ.inp20201106122541//
The previous job contains 0 fragments, simply inherited here
Input Ideriv = 0
Curr. Ideriv = -1
Max.  Ideriv = 0
Input Ideriv = 1
Curr. Ideriv = 0
Max.  Ideriv = 0

Checking the input file for inconsistencies... 	...done.

--------------------------------------------------------------
User input:
--------------------------------------------------------------
$molecule
read
$end

$rem
jobtype sp
exchange wB97M(2)
xc_grid 000099000590
basis aug-cc-pcVQZ
max_scf_cycles 200
thresh 14
scf_convergence 8
scf_algorithm gdm
symmetry false
sym_ignore true
unrestricted false
gen_scfman false
mem_total 128000
cc_memory 96000
cc_backend xm
mem_static 1500
n_frozen_core 0
scf_guess read
$end



--------------------------------------------------------------
 ----------------------------------------------------------------
             Standard Nuclear Orientation (Angstroms)
    I     Atom           X                Y                Z
 ----------------------------------------------------------------
    1      P       0.0000000000     0.0000000000     0.0000000000
 ----------------------------------------------------------------
 Nuclear Repulsion Energy =     0.0000000000 hartrees
 There are        9 alpha and        6 beta electrons
 Requested basis set is aug-cc-pCVQZ
 There are 34 shells and 134 basis functions

 Total QAlloc Memory Limit 128000 MB
 Mega-Array Size      1467 MB
 MEM_STATIC part      1500 MB
 A cutoff of  1.0D-14 yielded    595 shell pairs
 There are      9355 function pairs (     15897 Cartesian)
 
 -------------------------------------------------------
 OpenMP Integral Computing Module                       
 Release: version 1.0, May 2013, Q-Chem Inc. Pittsburgh 
 -------------------------------------------------------
 Integral Job Info:
 Integral job number is                      11
 Integral operator is                         1
 short-range coefficients              15000000
 long-range coefficients              100000000
 Omega coefficients                         300
 if combine SR and LR in K                    1
 Integral screening is                        0
 Integral computing path is                   2
 max size of driver memory is           3200000
 size of driver memory is               1704330
 size of scratch memory is             28840424
 max col of scratch BK array              50625
 max len of scratch array in speh3         2114
 max len of scratch index in speh4           50
 max int batch size is                      520
 min int batch size is                       52
 fixed nKL is                                21
 max L of basis functions is                  4
 order of int derivative is                   0
 number of shells is                         34
 number of basis is                         174
 number of cartesian basis is               174
 number of contracted shell pairs           595
 number of primitive shell pairs           3860
 maxK2 (contraction) of shell pair          169
 max number of K2 of shell pair               1
 max number of CS2 of shell pair             49
 max number of PS2 of shell pair           1014
 mem total for path MDJ                  631630
 -------------------------------------------------------
 Smallest overlap matrix eigenvalue = 3.31E-05

 Scale SEOQF with 1.000000e-01/1.000000e-01/1.000000e-01

 Standard Electronic Orientation quadrupole field applied
 Guess MOs from SCF MO coefficient file
 Reading MOs from coefficient file
 Reading MOs from coefficient file
 Long-range K will be added via erf
 Coulomb attenuation parameter = 0.3 bohr**(-1)
 A restricted hybrid HF-DFT SCF calculation will be
 performed using Geometric Direct Minimization
 Exchange:     0.1500 Hartree-Fock + 1.0000 wB97M-V + LR-HF
 Correlation:  1.0000 wB97M-V
 Using Euler-Maclaurin-Lebedev (99,590) quadrature formula
 Nonlocal Correlation:  VV10 with C = 0.0100 and b = 6.00 and scale = 1.00000
 Grid used for NLC:  SG-1 standard quadrature
 SCF converges when RMS gradient is below 1.0E-08
Using Q-Chem read-in guess as SCF_GUESS READ specified.

 using 16 threads for integral computing
 -------------------------------------------------------
 OpenMP Integral computing Module                
 Release: version 1.0, May 2013, Q-Chem Inc. Pittsburgh 
 -------------------------------------------------------
 using 16 threads for integral computing
 -------------------------------------------------------
 OpenMP Integral computing Module                
 Release: version 1.0, May 2013, Q-Chem Inc. Pittsburgh 
 -------------------------------------------------------
TIMEINFO->: J/JK contribution 34.26 sec.
 -------------------------------------------------------
 OpenMP BLAS3 based DFT computing Module                
 Release: version 1.0, May 2013, Q-Chem Inc. Pittsburgh 
 -------------------------------------------------------
 -------------------------------------------------------
 OpenMP BLAS3 based DFT computing Module                
 Release: version 1.0, May 2013, Q-Chem Inc. Pittsburgh 
 -------------------------------------------------------
 -------------------------------------------------------
 OpenMP BLAS3 based DFT computing Module                
 Release: version 1.0, May 2013, Q-Chem Inc. Pittsburgh 
 -------------------------------------------------------
 ---------------------------------------
  Cycle       Energy        RMS Gradient
 ---------------------------------------
    1    -341.2516132059      1.73E-10 Normal BFGS step
TIMEINFO->: J/JK contribution 34.39 sec.
 Nonlocal correlation =     0.0206287257
    2    -341.2516132059      4.39E-11 Convergence criterion met
 ---------------------------------------
 wB97M-V orbitals are now ready for the wB97M(2) calculation.
 wB97M(2) energy = Exch (0.62194 SRHF + 1.0 LRHF + wB97M(2)_EXCH) + 
               Corr (wB97M(2)_CORR + 0.34096 MP2 + 0.65904 VV10(b=10))
 SCF time:  CPU 139.31 s  wall 9.02 s
 SCF   energy in the final basis set = -341.21098673
 Total energy in the final basis set = -341.21098673
 
 Components of the MP2 correlation energy:
        aaaa  correlation energy =        -0.0286427141 au
        abab  correlation energy =        -0.1284845701 au
        bbbb  correlation energy =        -0.0174943296 au
        non-Brillouin singles    =        -0.0001481246 au

 Total  MP2   correlation energy =                    -0.17476974 au
        MP2         total energy =                  -341.38575647 au
 
 --------------------------------------------------------------
 
                    Orbital Energies (a.u.)
 --------------------------------------------------------------
 
 Alpha MOs
 -- Occupied --
-77.409  -6.759  -4.874  -4.874  -4.874  -0.705  -0.346  -0.346
 -0.346
 -- Virtual --
  0.043   0.053   0.053   0.053   0.137   0.137   0.137   0.137
  0.137   0.321   0.321   0.321   0.354   0.366   0.366   0.366
  0.366   0.366   0.398   0.398   0.398   0.398   0.398   0.398
  0.398   0.987   0.987   0.987   0.987   0.987   1.092   1.092
  1.092   1.092   1.092   1.092   1.092   1.132   1.132   1.132
  1.132   1.132   1.132   1.132   1.132   1.132   1.139   1.139
  1.139   1.402   2.591   2.591   2.591   2.591   2.591   2.719
  2.719   2.719   2.719   2.719   2.719   2.719   2.993   2.993
  2.993   2.993   2.993   2.993   2.993   2.993   2.993   4.197
  4.197   4.197   6.145   8.203   8.203   8.203   8.203   8.203
 13.671  13.671  13.671  15.865  15.865  15.865  15.865  15.865
 15.865  15.865  22.280  26.676  26.676  26.676  26.676  26.676
 39.451  39.451  39.451  46.405  46.405  46.405  46.405  46.405
 46.405  46.405  46.405  46.405  56.546  56.546  56.546  56.546
 56.546  56.546  56.546  67.051  79.535  79.535  79.535  79.538
 79.538 124.330 124.330 124.330 322.109
 
 Beta MOs
 -- Occupied --
-77.396  -6.746  -4.852  -4.852  -4.852  -0.586
 -- Virtual --
 -0.020  -0.020  -0.020   0.039   0.050   0.050   0.050   0.140
  0.140   0.140   0.140   0.140   0.331   0.331   0.331   0.369
  0.427   0.427   0.427   0.427   0.427   0.393   0.393   0.393
  0.393   0.393   0.393   0.393   1.049   1.049   1.049   1.049
  1.049   1.170   1.170   1.170   1.170   1.170   1.170   1.170
  1.154   1.154   1.154   1.154   1.154   1.154   1.154   1.154
  1.154   1.235   1.235   1.235   1.519   2.703   2.703   2.703
  2.703   2.703   2.870   2.870   2.870   2.870   2.870   2.870
  2.870   3.177   3.177   3.177   3.177   3.177   3.177   3.177
  3.177   3.177   4.296   4.296   4.296   6.206   8.283   8.283
  8.283   8.283   8.283  13.764  13.764  13.764  15.870  15.870
 15.870  15.870  15.870  15.870  15.870  22.324  26.710  26.710
 26.710  26.710  26.710  39.494  39.494  39.494  46.423  46.423
 46.423  46.423  46.423  46.423  46.423  46.423  46.423  56.573
 56.573  56.573  56.573  56.574  56.574  56.574  67.089  79.570
 79.570  79.570  79.573  79.573 124.349 124.349 124.349 322.133
 --------------------------------------------------------------
 
          Ground-State Mulliken Net Atomic Charges

     Atom                 Charge (a.u.)
  ----------------------------------------
      1 P                    -0.000000
  ----------------------------------------
  Sum of atomic charges =    -0.000000

 -----------------------------------------------------------------
                    Cartesian Multipole Moments
 -----------------------------------------------------------------
    Charge (ESU x 10^10)
                -0.0000
    Dipole Moment (Debye)
         X       0.0000      Y      -0.0000      Z       0.0000
       Tot       0.0000
    Quadrupole Moments (Debye-Ang)
        XX     -13.7492     XY      -0.0000     YY     -13.7492
        XZ       0.0000     YZ       0.0000     ZZ     -13.7492
    Octopole Moments (Debye-Ang^2)
       XXX       0.0000    XXY      -0.0000    XYY       0.0000
       YYY      -0.0000    XXZ      -0.0000    XYZ      -0.0000
       YYZ      -0.0000    XZZ       0.0000    YZZ      -0.0000
       ZZZ      -0.0000
    Hexadecapole Moments (Debye-Ang^3)
      XXXX     -23.6041   XXXY      -0.0000   XXYY      -7.8680
      XYYY      -0.0000   YYYY     -23.6041   XXXZ       0.0000
      XXYZ      -0.0000   XYYZ       0.0000   YYYZ      -0.0000
      XXZZ      -7.8680   XYZZ      -0.0000   YYZZ      -7.8680
      XZZZ       0.0000   YZZZ      -0.0000   ZZZZ     -23.6041
 -----------------------------------------------------------------

 STANDARD THERMODYNAMIC QUANTITIES AT   298.15 K  AND     1.00 ATM

   Translational Enthalpy:        0.889 kcal/mol
   Rotational Enthalpy:           0.000 kcal/mol
   Vibrational Enthalpy:          0.000 kcal/mol
   gas constant (RT):             0.592 kcal/mol
   Translational Entropy:        36.224  cal/mol.K
   Rotational Entropy:            0.000  cal/mol.K
   Vibrational Entropy:           0.000  cal/mol.K

   Total Enthalpy:                1.481 kcal/mol
   Total Entropy:                36.224  cal/mol.K

 -----------------------------------------------------------------

Archival summary:
1\1\n0075.mhg0\SP\ROProcedureUnspecified\BasisUnspecified\1(4)\yhljason\FriNov612:34:082020FriNov612:34:082020\0\\#,ROProcedureUnspecified,BasisUnspecified,\\0,4\P\\\@

 Total job time:  75.09s(wall), 1188.44s(cpu) 
 Fri Nov  6 12:34:08 2020

        *************************************************************
        *                                                           *
        *  Thank you very much for using Q-Chem.  Have a nice day.  *
        *                                                           *
        *************************************************************


 
User input: 3 of 6 
 
Q-Chem Developer Version!
                  Welcome to Q-Chem
     A Quantum Leap Into The Future Of Chemistry


 Q-Chem 5.1, Q-Chem, Inc., Pleasanton, CA (2018)

 Yihan Shao,  Zhengting Gan,  E. Epifanovsky,  A. T. B. Gilbert,  M. Wormit,  
 J. Kussmann,  A. W. Lange,  A. Behn,  Jia Deng,  Xintian Feng,  D. Ghosh,  
 M. Goldey,  P. R. Horn,  L. D. Jacobson,  I. Kaliman,  T. Kus,  A. Landau,  
 Jie Liu,  E. I. Proynov,  R. M. Richard,  R. P. Steele,  E. J. Sundstrom,  
 H. L. Woodcock III,  P. M. Zimmerman,  D. Zuev,  B. Albrecht,  E. Alguire,  
 S. A. Baeppler,  D. Barton,  Z. Benda,  Y. A. Bernard,  E. J. Berquist,  
 K. B. Bravaya,  H. Burton,  D. Casanova,  Chun-Min Chang,  Yunqing Chen,  
 A. Chien,  K. D. Closser,  M. P. Coons,  S. Coriani,  S. Dasgupta,  
 A. L. Dempwolff,  M. Diedenhofen,  Hainam Do,  R. G. Edgar,  Po-Tung Fang,  
 S. Faraji,  S. Fatehi,  Qingguo Feng,  K. D. Fenk,  J. Fosso-Tande,  
 Qinghui Ge,  A. Ghysels,  G. Gidofalvi,  J. Gomes,  J. Gonthier,  A. Gunina,  
 D. Hait,  M. W. D. Hanson-Heine,  P. H. P. Harbach,  A. W. Hauser,  
 J. E. Herr,  E. G. Hohenstein,  Z. C. Holden,  Kerwin Hui,  B. C. Huynh,  
 T.-C. Jagau,  Hyunjun Ji,  B. Kaduk,  K. Khistyaev,  Jaehoon Kim,  
 P. Klunzinger,  K. Koh,  D. Kosenkov,  L. Koulias,  T. Kowalczyk,  
 C. M. Krauter,  A. Kunitsa,  Ka Un Lao,  A. Laurent,  K. V. Lawler,  
 Joonho Lee,  D. Lefrancois,  S. Lehtola,  D. S. Levine,  Yi-Pei Li,  
 You-Sheng Lin,  Fenglai Liu,  E. Livshits,  A. Luenser,  P. Manohar,  
 E. Mansoor,  S. F. Manzer,  Shan-Ping Mao,  Yuezhi Mao,  N. Mardirossian,  
 A. V. Marenich,  T. Markovich,  L. A. Martinez-Martinez,  S. A. Maurer,  
 N. J. Mayhall,  S. C. McKenzie,  J.-M. Mewes,  A. F. Morrison,  
 J. W. Mullinax,  K. Nanda,  T. S. Nguyen-Beck,  R. Olivares-Amaya,  
 J. A. Parkhill,  T. M. Perrine,  F. Plasser,  P. Pokhilko,  S. Prager,  
 A. Prociuk,  E. Ramos,  D. R. Rehn,  F. Rob,  M. Schneider,  N. Sergueev,  
 S. M. Sharada,  S. Sharma,  D. W. Small,  T. Stauch,  T. Stein,  
 Yu-Chuan Su,  A. J. W. Thom,  A. Tkatchenko,  T. Tsuchimochi,  N. M. Tubman,  
 L. Vogt,  M. L. Vidal,  O. Vydrov,  M. A. Watson,  J. Wenzel,  
 M. de Wergifosse,  T. A. Wesolowski,  A. White,  J. Witte,  A. Yamada,  
 Jun Yang,  K. Yao,  S. Yeganeh,  S. R. Yost,  Zhi-Qiang You,  A. Zech,  
 Igor Ying Zhang,  Xing Zhang,  Yan Zhao,  Ying Zhu,  B. R. Brooks,  
 G. K. L. Chan,  C. J. Cramer,  M. S. Gordon,  W. J. Hehre,  A. Klamt,  
 M. W. Schmidt,  C. D. Sherrill,  D. G. Truhlar,  A. Aspuru-Guzik,  R. Baer,  
 A. T. Bell,  N. A. Besley,  Jeng-Da Chai,  A. E. DePrince, III,  
 R. A. DiStasio Jr.,  A. Dreuw,  B. D. Dunietz,  T. R. Furlani,  
 Chao-Ping Hsu,  Yousung Jung,  Jing Kong,  D. S. Lambrecht,  WanZhen Liang,  
 C. Ochsenfeld,  V. A. Rassolov,  L. V. Slipchenko,  J. E. Subotnik,  
 T. Van Voorhis,  J. M. Herbert,  A. I. Krylov,  P. M. W. Gill,  M. Head-Gordon

 Contributors to earlier versions of Q-Chem not listed above: 
 R. D. Adamson,  B. Austin,  J. Baker,  G. J. O. Beran,  K. Brandhorst,  
 S. T. Brown,  E. F. C. Byrd,  A. K. Chakraborty,  C.-L. Cheng,  
 Siu Hung Chien,  D. M. Chipman,  D. L. Crittenden,  H. Dachsel,  
 R. J. Doerksen,  A. D. Dutoi,  L. Fusti-Molnar,  W. A. Goddard III,  
 A. Golubeva-Zadorozhnaya,  S. R. Gwaltney,  G. Hawkins,  A. Heyden,  
 S. Hirata,  G. Kedziora,  F. J. Keil,  C. Kelley,  Jihan Kim,  R. A. King,  
 R. Z. Khaliullin,  P. P. Korambath,  W. Kurlancheek,  A. M. Lee,  M. S. Lee,  
 S. V. Levchenko,  Ching Yeh Lin,  D. Liotard,  R. C. Lochan,  I. Lotan,  
 P. E. Maslen,  N. Nair,  D. P. O'Neill,  D. Neuhauser,  E. Neuscamman,  
 C. M. Oana,  R. Olson,  B. Peters,  R. Peverati,  P. A. Pieniazek,  
 Y. M. Rhee,  J. Ritchie,  M. A. Rohrdanz,  E. Rosta,  N. J. Russ,  
 H. F. Schaefer III,  N. E. Schultz,  N. Shenvi,  A. C. Simmonett,  A. Sodt,  
 D. Stuck,  K. S. Thanthiriwatte,  V. Vanovschi,  Tao Wang,  A. Warshel,  
 C. F. Williams,  Q. Wu,  X. Xu,  W. Zhang

 Please cite Q-Chem as follows:
 Y. Shao et al., Mol. Phys. 113, 184-215 (2015)
 DOI: 10.1080/00268976.2014.952696

 Q-Chem 5.1.1 for Intel X86 EM64T Linux

 Parts of Q-Chem use Armadillo 8.300.2 (Tropical Shenanigans).
 http://arma.sourceforge.net/

 Q-Chem begins on Fri Nov  6 12:34:08 2020  

Host: n0075.mhg0
0

     Scratch files written to /local/scratch/users/yhljason/P_wB97M2_aug-cc-pcVQZ.inp20201106122541//
The previous job contains 0 fragments, simply inherited here
Input Ideriv = 1
Curr. Ideriv = -1
Max.  Ideriv = 1

Checking the input file for inconsistencies... 	...done.

--------------------------------------------------------------
User input:
--------------------------------------------------------------
$molecule
read
$end

$rem

jobtype sp
method wb97m-v
xc_grid 000099000590
basis aug-cc-pcVQZ
max_scf_cycles 200
thresh 14
scf_convergence 8
mem_total 128000
cc_memory 96000
cc_backend xm
mem_static 1500
symmetry false
sym_ignore true
scf_guess read
unrestricted false
scf_algorithm gdm
n_frozen_core 0
gen_scfman true
$end

$multipole_field
Z 0.0001
$end



--------------------------------------------------------------
 ----------------------------------------------------------------
             Standard Nuclear Orientation (Angstroms)
    I     Atom           X                Y                Z
 ----------------------------------------------------------------
    1      P       0.0000000000     0.0000000000     0.0000000000
 ----------------------------------------------------------------
 Nuclear Repulsion Energy =     0.0000000000 hartrees
 There are        9 alpha and        6 beta electrons
 Requested basis set is aug-cc-pCVQZ
 There are 34 shells and 134 basis functions

 Total QAlloc Memory Limit 128000 MB
 Mega-Array Size      1467 MB
 MEM_STATIC part      1500 MB
 Applying Cartesian multipole field
    Component          Value
    ---------          -----
     (0,0,1)        1.00000E-04
 A cutoff of  1.0D-14 yielded    595 shell pairs
 There are      9355 function pairs (     15897 Cartesian)
 
 -------------------------------------------------------
 OpenMP Integral Computing Module                       
 Release: version 1.0, May 2013, Q-Chem Inc. Pittsburgh 
 -------------------------------------------------------
 Integral Job Info:
 Integral job number is                      11
 Integral operator is                         1
 short-range coefficients              15000000
 long-range coefficients              100000000
 Omega coefficients                         300
 if combine SR and LR in K                    1
 Integral screening is                        0
 Integral computing path is                   2
 max size of driver memory is           3200000
 size of driver memory is               1704330
 size of scratch memory is             28840424
 max col of scratch BK array              50625
 max len of scratch array in speh3         2114
 max len of scratch index in speh4           50
 max int batch size is                      520
 min int batch size is                       52
 fixed nKL is                                21
 max L of basis functions is                  4
 order of int derivative is                   0
 number of shells is                         34
 number of basis is                         174
 number of cartesian basis is               174
 number of contracted shell pairs           595
 number of primitive shell pairs           3860
 maxK2 (contraction) of shell pair          169
 max number of K2 of shell pair               1
 max number of CS2 of shell pair             49
 max number of PS2 of shell pair           1014
 mem total for path MDJ                  631630
 -------------------------------------------------------
 Smallest overlap matrix eigenvalue = 3.31E-05
 Guess MOs from SCF MO coefficient file

 -----------------------------------------------------------------------
  General SCF calculation program by
  Eric Jon Sundstrom, Paul Horn, Yuezhi Mao, Dmitri Zuev, Alec White,
  David Stuck, Shaama M.S., Shane Yost, Joonho Lee, David Small,
  Daniel Levine, Susi Lehtola, Hugh Burton, Evgeny Epifanovsky
 -----------------------------------------------------------------------
 Exchange:     0.1500 Hartree-Fock + 1.0000 wB97M-V + LR-HF
 Correlation:  1.0000 wB97M-V
 Using Euler-Maclaurin-Lebedev (99,590) quadrature formula
 Nonlocal Correlation:  VV10 with C = 0.0100 and b = 6.00 and scale = 1.00000
 Grid used for NLC:  SG-1 standard quadrature
 using 16 threads for integral computing
 -------------------------------------------------------
 OpenMP Integral computing Module                
 Release: version 1.0, May 2013, Q-Chem Inc. Pittsburgh 
 -------------------------------------------------------
 using 16 threads for integral computing
 -------------------------------------------------------
 OpenMP Integral computing Module                
 Release: version 1.0, May 2013, Q-Chem Inc. Pittsburgh 
 -------------------------------------------------------
 -------------------------------------------------------
 OpenMP BLAS3 based DFT computing Module                
 Release: version 1.0, May 2013, Q-Chem Inc. Pittsburgh 
 -------------------------------------------------------
 -------------------------------------------------------
 OpenMP BLAS3 based DFT computing Module                
 Release: version 1.0, May 2013, Q-Chem Inc. Pittsburgh 
 -------------------------------------------------------
 -------------------------------------------------------
 OpenMP BLAS3 based DFT computing Module                
 Release: version 1.0, May 2013, Q-Chem Inc. Pittsburgh 
 -------------------------------------------------------
 Nonlocal correlation = 0.064457114118
 A restricted open-shell SCF calculation will be
 performed using GDM
 SCF converges when RMS gradient is below 1.0e-08
 ---------------------------------------
  Cycle       Energy        RMS Gradient
 ---------------------------------------
 Nonlocal correlation = 6.445711395575e-02
    1    -341.2516132059      3.04e-04   Normal BFGS step
 Nonlocal correlation = 6.445711391064e-02
    2    -341.2516133115      2.19e-04   Normal BFGS step
 Nonlocal correlation = 6.445711387955e-02
    3    -341.2516133422      2.71e-05   Normal BFGS step
 Nonlocal correlation = 6.445711387139e-02
    4    -341.2516133437      5.50e-06   Normal BFGS step
 Nonlocal correlation = 6.445711387066e-02
    5    -341.2516133438      1.20e-06   Normal BFGS step
 Nonlocal correlation = 6.445711387117e-02
    6    -341.2516133439      1.77e-07   Normal BFGS step
 Nonlocal correlation = 6.445711387110e-02
    7    -341.2516133439      4.28e-08   Normal BFGS step
 Nonlocal correlation = 6.445711387118e-02
    8    -341.2516133439      1.20e-08   Normal BFGS step
 Nonlocal correlation = 6.445711387113e-02
    9    -341.2516133439      3.08e-09  Convergence criterion met
The disked orbital energies are calculated using alpha and beta Focks
 ---------------------------------------
 SCF time:   CPU 477.43s  wall 32.00s 
<S^2> =          3.750000000
 SCF   energy in the final basis set =     -341.2516133439
 Total energy in the final basis set =     -341.2516133439
 
 --------------------------------------------------------------
 
                    Orbital Energies (a.u.)
 --------------------------------------------------------------
 
 Alpha MOs
 -- Occupied --
-77.409  -6.759  -4.874  -4.874  -4.874  -0.705  -0.346  -0.346
 -0.346
 -- Virtual --
  0.044   0.053   0.053   0.053   0.139   0.139   0.139   0.139
  0.139   0.322   0.322   0.322   0.355   0.399   0.399   0.399
  0.399   0.399   0.399   0.399   0.367   0.367   0.367   0.367
  0.367   0.985   0.985   0.985   0.985   0.985   1.132   1.132
  1.132   1.132   1.132   1.132   1.132   1.132   1.132   1.092
  1.092   1.092   1.092   1.092   1.092   1.092   1.138   1.138
  1.138   1.401   2.592   2.592   2.592   2.592   2.592   2.719
  2.719   2.719   2.719   2.719   2.719   2.719   2.993   2.993
  2.993   2.993   2.993   2.993   2.993   2.993   2.993   4.197
  4.197   4.197   6.144   8.201   8.201   8.201   8.201   8.201
 13.671  13.671  13.671  15.865  15.865  15.865  15.865  15.865
 15.865  15.865  22.280  26.676  26.676  26.676  26.676  26.676
 39.451  39.451  39.451  46.405  46.405  46.405  46.405  46.405
 46.405  46.405  46.405  46.405  56.546  56.546  56.546  56.546
 56.546  56.546  56.546  67.051  79.535  79.535  79.535  79.538
 79.538 124.330 124.330 124.330 322.109
 
 Beta MOs
 -- Occupied --
-77.396  -6.746  -4.852  -4.852  -4.852  -0.586
 -- Virtual --
 -0.020  -0.020  -0.020   0.039   0.050   0.050   0.050   0.139
  0.139   0.139   0.139   0.139   0.331   0.331   0.331   0.368
  0.393   0.393   0.393   0.393   0.393   0.393   0.393   0.427
  0.427   0.427   0.427   0.427   1.050   1.050   1.050   1.050
  1.050   1.154   1.154   1.154   1.154   1.154   1.154   1.154
  1.154   1.154   1.170   1.170   1.170   1.170   1.170   1.170
  1.170   1.235   1.235   1.235   1.520   2.703   2.703   2.703
  2.703   2.703   2.871   2.871   2.871   2.871   2.871   2.871
  2.871   3.177   3.177   3.177   3.177   3.177   3.177   3.177
  3.177   3.177   4.296   4.296   4.296   6.206   8.284   8.284
  8.284   8.284   8.284  13.764  13.764  13.764  15.870  15.870
 15.870  15.870  15.870  15.870  15.870  22.324  26.710  26.710
 26.710  26.710  26.710  39.494  39.494  39.494  46.423  46.423
 46.423  46.423  46.423  46.423  46.423  46.423  46.423  56.573
 56.573  56.573  56.573  56.574  56.574  56.574  67.089  79.570
 79.570  79.570  79.573  79.573 124.349 124.349 124.349 322.133
 --------------------------------------------------------------
 
          Ground-State Mulliken Net Atomic Charges

     Atom                 Charge (a.u.)
  ----------------------------------------
      1 P                    -0.000000
  ----------------------------------------
  Sum of atomic charges =    -0.000000

 -----------------------------------------------------------------
                    Cartesian Multipole Moments
 -----------------------------------------------------------------
    Charge (ESU x 10^10)
                -0.0000
    Dipole Moment (Debye)
         X      -0.0000      Y       0.0000      Z      -0.0070
       Tot       0.0070
    Quadrupole Moments (Debye-Ang)
        XX     -13.7492     XY      -0.0000     YY     -13.7492
        XZ       0.0000     YZ       0.0000     ZZ     -13.7492
    Octopole Moments (Debye-Ang^2)
       XXX      -0.0000    XXY       0.0000    XYY      -0.0000
       YYY       0.0000    XXZ      -0.0069    XYZ      -0.0000
       YYZ      -0.0069    XZZ       0.0000    YZZ       0.0000
       ZZZ      -0.0206
    Hexadecapole Moments (Debye-Ang^3)
      XXXX     -23.6041   XXXY      -0.0000   XXYY      -7.8680
      XYYY      -0.0000   YYYY     -23.6041   XXXZ       0.0000
      XXYZ      -0.0000   XYYZ       0.0000   YYYZ      -0.0000
      XXZZ      -7.8681   XYZZ      -0.0000   YYZZ      -7.8681
      XZZZ       0.0000   YZZZ      -0.0000   ZZZZ     -23.6042
 -----------------------------------------------------------------

 STANDARD THERMODYNAMIC QUANTITIES AT   298.15 K  AND     1.00 ATM

   Translational Enthalpy:        0.889 kcal/mol
   Rotational Enthalpy:           0.000 kcal/mol
   Vibrational Enthalpy:          0.000 kcal/mol
   gas constant (RT):             0.592 kcal/mol
   Translational Entropy:        36.224  cal/mol.K
   Rotational Entropy:            0.000  cal/mol.K
   Vibrational Entropy:           0.000  cal/mol.K

   Total Enthalpy:                1.481 kcal/mol
   Total Entropy:                36.224  cal/mol.K

 -----------------------------------------------------------------

Archival summary:
1\1\n0075.mhg0\SP\ROProcedureUnspecified\BasisUnspecified\1(4)\yhljason\FriNov612:34:412020FriNov612:34:412020\0\\#,ROProcedureUnspecified,BasisUnspecified,\\0,4\P\\\@

 Total job time:  32.87s(wall), 490.26s(cpu) 
 Fri Nov  6 12:34:41 2020

        *************************************************************
        *                                                           *
        *  Thank you very much for using Q-Chem.  Have a nice day.  *
        *                                                           *
        *************************************************************


 
User input: 4 of 6 
 
Q-Chem Developer Version!
                  Welcome to Q-Chem
     A Quantum Leap Into The Future Of Chemistry


 Q-Chem 5.1, Q-Chem, Inc., Pleasanton, CA (2018)

 Yihan Shao,  Zhengting Gan,  E. Epifanovsky,  A. T. B. Gilbert,  M. Wormit,  
 J. Kussmann,  A. W. Lange,  A. Behn,  Jia Deng,  Xintian Feng,  D. Ghosh,  
 M. Goldey,  P. R. Horn,  L. D. Jacobson,  I. Kaliman,  T. Kus,  A. Landau,  
 Jie Liu,  E. I. Proynov,  R. M. Richard,  R. P. Steele,  E. J. Sundstrom,  
 H. L. Woodcock III,  P. M. Zimmerman,  D. Zuev,  B. Albrecht,  E. Alguire,  
 S. A. Baeppler,  D. Barton,  Z. Benda,  Y. A. Bernard,  E. J. Berquist,  
 K. B. Bravaya,  H. Burton,  D. Casanova,  Chun-Min Chang,  Yunqing Chen,  
 A. Chien,  K. D. Closser,  M. P. Coons,  S. Coriani,  S. Dasgupta,  
 A. L. Dempwolff,  M. Diedenhofen,  Hainam Do,  R. G. Edgar,  Po-Tung Fang,  
 S. Faraji,  S. Fatehi,  Qingguo Feng,  K. D. Fenk,  J. Fosso-Tande,  
 Qinghui Ge,  A. Ghysels,  G. Gidofalvi,  J. Gomes,  J. Gonthier,  A. Gunina,  
 D. Hait,  M. W. D. Hanson-Heine,  P. H. P. Harbach,  A. W. Hauser,  
 J. E. Herr,  E. G. Hohenstein,  Z. C. Holden,  Kerwin Hui,  B. C. Huynh,  
 T.-C. Jagau,  Hyunjun Ji,  B. Kaduk,  K. Khistyaev,  Jaehoon Kim,  
 P. Klunzinger,  K. Koh,  D. Kosenkov,  L. Koulias,  T. Kowalczyk,  
 C. M. Krauter,  A. Kunitsa,  Ka Un Lao,  A. Laurent,  K. V. Lawler,  
 Joonho Lee,  D. Lefrancois,  S. Lehtola,  D. S. Levine,  Yi-Pei Li,  
 You-Sheng Lin,  Fenglai Liu,  E. Livshits,  A. Luenser,  P. Manohar,  
 E. Mansoor,  S. F. Manzer,  Shan-Ping Mao,  Yuezhi Mao,  N. Mardirossian,  
 A. V. Marenich,  T. Markovich,  L. A. Martinez-Martinez,  S. A. Maurer,  
 N. J. Mayhall,  S. C. McKenzie,  J.-M. Mewes,  A. F. Morrison,  
 J. W. Mullinax,  K. Nanda,  T. S. Nguyen-Beck,  R. Olivares-Amaya,  
 J. A. Parkhill,  T. M. Perrine,  F. Plasser,  P. Pokhilko,  S. Prager,  
 A. Prociuk,  E. Ramos,  D. R. Rehn,  F. Rob,  M. Schneider,  N. Sergueev,  
 S. M. Sharada,  S. Sharma,  D. W. Small,  T. Stauch,  T. Stein,  
 Yu-Chuan Su,  A. J. W. Thom,  A. Tkatchenko,  T. Tsuchimochi,  N. M. Tubman,  
 L. Vogt,  M. L. Vidal,  O. Vydrov,  M. A. Watson,  J. Wenzel,  
 M. de Wergifosse,  T. A. Wesolowski,  A. White,  J. Witte,  A. Yamada,  
 Jun Yang,  K. Yao,  S. Yeganeh,  S. R. Yost,  Zhi-Qiang You,  A. Zech,  
 Igor Ying Zhang,  Xing Zhang,  Yan Zhao,  Ying Zhu,  B. R. Brooks,  
 G. K. L. Chan,  C. J. Cramer,  M. S. Gordon,  W. J. Hehre,  A. Klamt,  
 M. W. Schmidt,  C. D. Sherrill,  D. G. Truhlar,  A. Aspuru-Guzik,  R. Baer,  
 A. T. Bell,  N. A. Besley,  Jeng-Da Chai,  A. E. DePrince, III,  
 R. A. DiStasio Jr.,  A. Dreuw,  B. D. Dunietz,  T. R. Furlani,  
 Chao-Ping Hsu,  Yousung Jung,  Jing Kong,  D. S. Lambrecht,  WanZhen Liang,  
 C. Ochsenfeld,  V. A. Rassolov,  L. V. Slipchenko,  J. E. Subotnik,  
 T. Van Voorhis,  J. M. Herbert,  A. I. Krylov,  P. M. W. Gill,  M. Head-Gordon

 Contributors to earlier versions of Q-Chem not listed above: 
 R. D. Adamson,  B. Austin,  J. Baker,  G. J. O. Beran,  K. Brandhorst,  
 S. T. Brown,  E. F. C. Byrd,  A. K. Chakraborty,  C.-L. Cheng,  
 Siu Hung Chien,  D. M. Chipman,  D. L. Crittenden,  H. Dachsel,  
 R. J. Doerksen,  A. D. Dutoi,  L. Fusti-Molnar,  W. A. Goddard III,  
 A. Golubeva-Zadorozhnaya,  S. R. Gwaltney,  G. Hawkins,  A. Heyden,  
 S. Hirata,  G. Kedziora,  F. J. Keil,  C. Kelley,  Jihan Kim,  R. A. King,  
 R. Z. Khaliullin,  P. P. Korambath,  W. Kurlancheek,  A. M. Lee,  M. S. Lee,  
 S. V. Levchenko,  Ching Yeh Lin,  D. Liotard,  R. C. Lochan,  I. Lotan,  
 P. E. Maslen,  N. Nair,  D. P. O'Neill,  D. Neuhauser,  E. Neuscamman,  
 C. M. Oana,  R. Olson,  B. Peters,  R. Peverati,  P. A. Pieniazek,  
 Y. M. Rhee,  J. Ritchie,  M. A. Rohrdanz,  E. Rosta,  N. J. Russ,  
 H. F. Schaefer III,  N. E. Schultz,  N. Shenvi,  A. C. Simmonett,  A. Sodt,  
 D. Stuck,  K. S. Thanthiriwatte,  V. Vanovschi,  Tao Wang,  A. Warshel,  
 C. F. Williams,  Q. Wu,  X. Xu,  W. Zhang

 Please cite Q-Chem as follows:
 Y. Shao et al., Mol. Phys. 113, 184-215 (2015)
 DOI: 10.1080/00268976.2014.952696

 Q-Chem 5.1.1 for Intel X86 EM64T Linux

 Parts of Q-Chem use Armadillo 8.300.2 (Tropical Shenanigans).
 http://arma.sourceforge.net/

 Q-Chem begins on Fri Nov  6 12:34:41 2020  

Host: n0075.mhg0
0

     Scratch files written to /local/scratch/users/yhljason/P_wB97M2_aug-cc-pcVQZ.inp20201106122541//
The previous job contains 0 fragments, simply inherited here
Input Ideriv = 0
Curr. Ideriv = -1
Max.  Ideriv = 0
Input Ideriv = 1
Curr. Ideriv = 0
Max.  Ideriv = 0

Checking the input file for inconsistencies... 	...done.

--------------------------------------------------------------
User input:
--------------------------------------------------------------
$molecule
read
$end

$rem

jobtype sp
exchange wb97m(2)
xc_grid 000099000590
basis aug-cc-pcVQZ
max_scf_cycles 200
thresh 14
scf_convergence 8
mem_total 128000
cc_memory 96000
cc_backend xm
mem_static 1500
symmetry false
sym_ignore true
scf_guess read
unrestricted false
scf_algorithm gdm
n_frozen_core 0
$end

$multipole_field
Z 0.0001
$end



--------------------------------------------------------------
 ----------------------------------------------------------------
             Standard Nuclear Orientation (Angstroms)
    I     Atom           X                Y                Z
 ----------------------------------------------------------------
    1      P       0.0000000000     0.0000000000     0.0000000000
 ----------------------------------------------------------------
 Nuclear Repulsion Energy =     0.0000000000 hartrees
 There are        9 alpha and        6 beta electrons
 Requested basis set is aug-cc-pCVQZ
 There are 34 shells and 134 basis functions

 Total QAlloc Memory Limit 128000 MB
 Mega-Array Size      1467 MB
 MEM_STATIC part      1500 MB
 Applying Cartesian multipole field
    Component          Value
    ---------          -----
     (0,0,1)        1.00000E-04
 A cutoff of  1.0D-14 yielded    595 shell pairs
 There are      9355 function pairs (     15897 Cartesian)
 
 -------------------------------------------------------
 OpenMP Integral Computing Module                       
 Release: version 1.0, May 2013, Q-Chem Inc. Pittsburgh 
 -------------------------------------------------------
 Integral Job Info:
 Integral job number is                      11
 Integral operator is                         1
 short-range coefficients              15000000
 long-range coefficients              100000000
 Omega coefficients                         300
 if combine SR and LR in K                    1
 Integral screening is                        0
 Integral computing path is                   2
 max size of driver memory is           3200000
 size of driver memory is               1704330
 size of scratch memory is             28840424
 max col of scratch BK array              50625
 max len of scratch array in speh3         2114
 max len of scratch index in speh4           50
 max int batch size is                      520
 min int batch size is                       52
 fixed nKL is                                21
 max L of basis functions is                  4
 order of int derivative is                   0
 number of shells is                         34
 number of basis is                         174
 number of cartesian basis is               174
 number of contracted shell pairs           595
 number of primitive shell pairs           3860
 maxK2 (contraction) of shell pair          169
 max number of K2 of shell pair               1
 max number of CS2 of shell pair             49
 max number of PS2 of shell pair           1014
 mem total for path MDJ                  631630
 -------------------------------------------------------
 Smallest overlap matrix eigenvalue = 3.31E-05
 Guess MOs from SCF MO coefficient file
 Reading MOs from coefficient file
 Reading MOs from coefficient file
 Long-range K will be added via erf
 Coulomb attenuation parameter = 0.3 bohr**(-1)
 A restricted hybrid HF-DFT SCF calculation will be
 performed using Geometric Direct Minimization
 Exchange:     0.1500 Hartree-Fock + 1.0000 wB97M-V + LR-HF
 Correlation:  1.0000 wB97M-V
 Using Euler-Maclaurin-Lebedev (99,590) quadrature formula
 Nonlocal Correlation:  VV10 with C = 0.0100 and b = 6.00 and scale = 1.00000
 Grid used for NLC:  SG-1 standard quadrature
 SCF converges when RMS gradient is below 1.0E-08
Using Q-Chem read-in guess as SCF_GUESS READ specified.

 using 16 threads for integral computing
 -------------------------------------------------------
 OpenMP Integral computing Module                
 Release: version 1.0, May 2013, Q-Chem Inc. Pittsburgh 
 -------------------------------------------------------
 using 16 threads for integral computing
 -------------------------------------------------------
 OpenMP Integral computing Module                
 Release: version 1.0, May 2013, Q-Chem Inc. Pittsburgh 
 -------------------------------------------------------
TIMEINFO->: J/JK contribution 38.59 sec.
 -------------------------------------------------------
 OpenMP BLAS3 based DFT computing Module                
 Release: version 1.0, May 2013, Q-Chem Inc. Pittsburgh 
 -------------------------------------------------------
 -------------------------------------------------------
 OpenMP BLAS3 based DFT computing Module                
 Release: version 1.0, May 2013, Q-Chem Inc. Pittsburgh 
 -------------------------------------------------------
 -------------------------------------------------------
 OpenMP BLAS3 based DFT computing Module                
 Release: version 1.0, May 2013, Q-Chem Inc. Pittsburgh 
 -------------------------------------------------------
 ---------------------------------------
  Cycle       Energy        RMS Gradient
 ---------------------------------------
    1    -341.2516133439      7.06E-10 Normal BFGS step
TIMEINFO->: J/JK contribution 40.63 sec.
   GDM::WARNING energy changes are now smaller than effective accuracy.
   GDM::        calculation will continue, but THRESH should be increased
   GDM::        or SCF_CONVERGENCE decreased.
   GDM::        effective_thresh =   9.000000000000000E-011
 Nonlocal correlation =     0.0206287256
    2    -341.2516133438      2.88E-10 Convergence criterion met
 ---------------------------------------
 wB97M-V orbitals are now ready for the wB97M(2) calculation.
 wB97M(2) energy = Exch (0.62194 SRHF + 1.0 LRHF + wB97M(2)_EXCH) + 
               Corr (wB97M(2)_CORR + 0.34096 MP2 + 0.65904 VV10(b=10))
 SCF time:  CPU 161.69 s  wall 10.53 s
 SCF   energy in the final basis set = -341.21098686
 Total energy in the final basis set = -341.21098686
 
 Components of the MP2 correlation energy:
        aaaa  correlation energy =        -0.0286427147 au
        abab  correlation energy =        -0.1284845690 au
        bbbb  correlation energy =        -0.0174943296 au
        non-Brillouin singles    =        -0.0001481246 au

 Total  MP2   correlation energy =                    -0.17476974 au
        MP2         total energy =                  -341.38575660 au
 
 --------------------------------------------------------------
 
                    Orbital Energies (a.u.)
 --------------------------------------------------------------
 
 Alpha MOs
 -- Occupied --
-77.409  -6.759  -4.874  -4.874  -4.874  -0.705  -0.346  -0.346
 -0.346
 -- Virtual --
  0.043   0.053   0.053   0.053   0.137   0.137   0.137   0.137
  0.137   0.321   0.321   0.321   0.354   0.366   0.366   0.366
  0.366   0.366   0.398   0.398   0.398   0.398   0.398   0.398
  0.398   0.987   0.987   0.987   0.987   0.987   1.092   1.092
  1.092   1.092   1.092   1.092   1.092   1.132   1.132   1.132
  1.132   1.132   1.132   1.132   1.132   1.132   1.139   1.139
  1.139   1.402   2.591   2.591   2.591   2.591   2.591   2.719
  2.719   2.719   2.719   2.719   2.719   2.719   2.993   2.993
  2.993   2.993   2.993   2.993   2.993   2.993   2.993   4.197
  4.197   4.197   6.145   8.203   8.203   8.203   8.203   8.203
 13.671  13.671  13.671  15.865  15.865  15.865  15.865  15.865
 15.865  15.865  22.280  26.676  26.676  26.676  26.676  26.676
 39.451  39.451  39.451  46.405  46.405  46.405  46.405  46.405
 46.405  46.405  46.405  46.405  56.546  56.546  56.546  56.546
 56.546  56.546  56.546  67.051  79.535  79.535  79.535  79.538
 79.538 124.330 124.330 124.330 322.109
 
 Beta MOs
 -- Occupied --
-77.396  -6.746  -4.852  -4.852  -4.852  -0.586
 -- Virtual --
 -0.020  -0.020  -0.020   0.039   0.050   0.050   0.050   0.140
  0.140   0.140   0.140   0.140   0.331   0.331   0.331   0.369
  0.427   0.427   0.427   0.427   0.427   0.393   0.393   0.393
  0.393   0.393   0.393   0.393   1.049   1.049   1.049   1.049
  1.049   1.170   1.170   1.170   1.170   1.170   1.170   1.170
  1.154   1.154   1.154   1.154   1.154   1.154   1.154   1.154
  1.154   1.235   1.235   1.235   1.519   2.703   2.703   2.703
  2.703   2.703   2.870   2.870   2.870   2.870   2.870   2.870
  2.870   3.177   3.177   3.177   3.177   3.177   3.177   3.177
  3.177   3.177   4.296   4.296   4.296   6.206   8.283   8.283
  8.283   8.283   8.283  13.764  13.764  13.764  15.870  15.870
 15.870  15.870  15.870  15.870  15.870  22.324  26.710  26.710
 26.710  26.710  26.710  39.494  39.494  39.494  46.423  46.423
 46.423  46.423  46.423  46.423  46.423  46.423  46.423  56.573
 56.573  56.573  56.573  56.574  56.574  56.574  67.089  79.570
 79.570  79.570  79.573  79.573 124.349 124.349 124.349 322.133
 --------------------------------------------------------------
 
          Ground-State Mulliken Net Atomic Charges

     Atom                 Charge (a.u.)
  ----------------------------------------
      1 P                     0.000000
  ----------------------------------------
  Sum of atomic charges =     0.000000

 -----------------------------------------------------------------
                    Cartesian Multipole Moments
 -----------------------------------------------------------------
    Charge (ESU x 10^10)
                 0.0000
    Dipole Moment (Debye)
         X       0.0000      Y       0.0000      Z      -0.0070
       Tot       0.0070
    Quadrupole Moments (Debye-Ang)
        XX     -13.7492     XY      -0.0000     YY     -13.7492
        XZ       0.0000     YZ      -0.0000     ZZ     -13.7492
    Octopole Moments (Debye-Ang^2)
       XXX      -0.0000    XXY       0.0000    XYY      -0.0000
       YYY       0.0000    XXZ      -0.0069    XYZ      -0.0000
       YYZ      -0.0069    XZZ      -0.0000    YZZ       0.0000
       ZZZ      -0.0206
    Hexadecapole Moments (Debye-Ang^3)
      XXXX     -23.6041   XXXY      -0.0000   XXYY      -7.8680
      XYYY      -0.0000   YYYY     -23.6041   XXXZ       0.0000
      XXYZ       0.0000   XYYZ       0.0000   YYYZ       0.0000
      XXZZ      -7.8681   XYZZ      -0.0000   YYZZ      -7.8681
      XZZZ       0.0000   YZZZ       0.0000   ZZZZ     -23.6042
 -----------------------------------------------------------------

 STANDARD THERMODYNAMIC QUANTITIES AT   298.15 K  AND     1.00 ATM

   Translational Enthalpy:        0.889 kcal/mol
   Rotational Enthalpy:           0.000 kcal/mol
   Vibrational Enthalpy:          0.000 kcal/mol
   gas constant (RT):             0.592 kcal/mol
   Translational Entropy:        36.224  cal/mol.K
   Rotational Entropy:            0.000  cal/mol.K
   Vibrational Entropy:           0.000  cal/mol.K

   Total Enthalpy:                1.481 kcal/mol
   Total Entropy:                36.224  cal/mol.K

 -----------------------------------------------------------------

Archival summary:
1\1\n0075.mhg0\SP\ROProcedureUnspecified\BasisUnspecified\1(4)\yhljason\FriNov612:35:572020FriNov612:35:572020\0\\#,ROProcedureUnspecified,BasisUnspecified,\\0,4\P\\\@

 Total job time:  76.54s(wall), 1210.67s(cpu) 
 Fri Nov  6 12:35:57 2020

        *************************************************************
        *                                                           *
        *  Thank you very much for using Q-Chem.  Have a nice day.  *
        *                                                           *
        *************************************************************


 
User input: 5 of 6 
 
Q-Chem Developer Version!
                  Welcome to Q-Chem
     A Quantum Leap Into The Future Of Chemistry


 Q-Chem 5.1, Q-Chem, Inc., Pleasanton, CA (2018)

 Yihan Shao,  Zhengting Gan,  E. Epifanovsky,  A. T. B. Gilbert,  M. Wormit,  
 J. Kussmann,  A. W. Lange,  A. Behn,  Jia Deng,  Xintian Feng,  D. Ghosh,  
 M. Goldey,  P. R. Horn,  L. D. Jacobson,  I. Kaliman,  T. Kus,  A. Landau,  
 Jie Liu,  E. I. Proynov,  R. M. Richard,  R. P. Steele,  E. J. Sundstrom,  
 H. L. Woodcock III,  P. M. Zimmerman,  D. Zuev,  B. Albrecht,  E. Alguire,  
 S. A. Baeppler,  D. Barton,  Z. Benda,  Y. A. Bernard,  E. J. Berquist,  
 K. B. Bravaya,  H. Burton,  D. Casanova,  Chun-Min Chang,  Yunqing Chen,  
 A. Chien,  K. D. Closser,  M. P. Coons,  S. Coriani,  S. Dasgupta,  
 A. L. Dempwolff,  M. Diedenhofen,  Hainam Do,  R. G. Edgar,  Po-Tung Fang,  
 S. Faraji,  S. Fatehi,  Qingguo Feng,  K. D. Fenk,  J. Fosso-Tande,  
 Qinghui Ge,  A. Ghysels,  G. Gidofalvi,  J. Gomes,  J. Gonthier,  A. Gunina,  
 D. Hait,  M. W. D. Hanson-Heine,  P. H. P. Harbach,  A. W. Hauser,  
 J. E. Herr,  E. G. Hohenstein,  Z. C. Holden,  Kerwin Hui,  B. C. Huynh,  
 T.-C. Jagau,  Hyunjun Ji,  B. Kaduk,  K. Khistyaev,  Jaehoon Kim,  
 P. Klunzinger,  K. Koh,  D. Kosenkov,  L. Koulias,  T. Kowalczyk,  
 C. M. Krauter,  A. Kunitsa,  Ka Un Lao,  A. Laurent,  K. V. Lawler,  
 Joonho Lee,  D. Lefrancois,  S. Lehtola,  D. S. Levine,  Yi-Pei Li,  
 You-Sheng Lin,  Fenglai Liu,  E. Livshits,  A. Luenser,  P. Manohar,  
 E. Mansoor,  S. F. Manzer,  Shan-Ping Mao,  Yuezhi Mao,  N. Mardirossian,  
 A. V. Marenich,  T. Markovich,  L. A. Martinez-Martinez,  S. A. Maurer,  
 N. J. Mayhall,  S. C. McKenzie,  J.-M. Mewes,  A. F. Morrison,  
 J. W. Mullinax,  K. Nanda,  T. S. Nguyen-Beck,  R. Olivares-Amaya,  
 J. A. Parkhill,  T. M. Perrine,  F. Plasser,  P. Pokhilko,  S. Prager,  
 A. Prociuk,  E. Ramos,  D. R. Rehn,  F. Rob,  M. Schneider,  N. Sergueev,  
 S. M. Sharada,  S. Sharma,  D. W. Small,  T. Stauch,  T. Stein,  
 Yu-Chuan Su,  A. J. W. Thom,  A. Tkatchenko,  T. Tsuchimochi,  N. M. Tubman,  
 L. Vogt,  M. L. Vidal,  O. Vydrov,  M. A. Watson,  J. Wenzel,  
 M. de Wergifosse,  T. A. Wesolowski,  A. White,  J. Witte,  A. Yamada,  
 Jun Yang,  K. Yao,  S. Yeganeh,  S. R. Yost,  Zhi-Qiang You,  A. Zech,  
 Igor Ying Zhang,  Xing Zhang,  Yan Zhao,  Ying Zhu,  B. R. Brooks,  
 G. K. L. Chan,  C. J. Cramer,  M. S. Gordon,  W. J. Hehre,  A. Klamt,  
 M. W. Schmidt,  C. D. Sherrill,  D. G. Truhlar,  A. Aspuru-Guzik,  R. Baer,  
 A. T. Bell,  N. A. Besley,  Jeng-Da Chai,  A. E. DePrince, III,  
 R. A. DiStasio Jr.,  A. Dreuw,  B. D. Dunietz,  T. R. Furlani,  
 Chao-Ping Hsu,  Yousung Jung,  Jing Kong,  D. S. Lambrecht,  WanZhen Liang,  
 C. Ochsenfeld,  V. A. Rassolov,  L. V. Slipchenko,  J. E. Subotnik,  
 T. Van Voorhis,  J. M. Herbert,  A. I. Krylov,  P. M. W. Gill,  M. Head-Gordon

 Contributors to earlier versions of Q-Chem not listed above: 
 R. D. Adamson,  B. Austin,  J. Baker,  G. J. O. Beran,  K. Brandhorst,  
 S. T. Brown,  E. F. C. Byrd,  A. K. Chakraborty,  C.-L. Cheng,  
 Siu Hung Chien,  D. M. Chipman,  D. L. Crittenden,  H. Dachsel,  
 R. J. Doerksen,  A. D. Dutoi,  L. Fusti-Molnar,  W. A. Goddard III,  
 A. Golubeva-Zadorozhnaya,  S. R. Gwaltney,  G. Hawkins,  A. Heyden,  
 S. Hirata,  G. Kedziora,  F. J. Keil,  C. Kelley,  Jihan Kim,  R. A. King,  
 R. Z. Khaliullin,  P. P. Korambath,  W. Kurlancheek,  A. M. Lee,  M. S. Lee,  
 S. V. Levchenko,  Ching Yeh Lin,  D. Liotard,  R. C. Lochan,  I. Lotan,  
 P. E. Maslen,  N. Nair,  D. P. O'Neill,  D. Neuhauser,  E. Neuscamman,  
 C. M. Oana,  R. Olson,  B. Peters,  R. Peverati,  P. A. Pieniazek,  
 Y. M. Rhee,  J. Ritchie,  M. A. Rohrdanz,  E. Rosta,  N. J. Russ,  
 H. F. Schaefer III,  N. E. Schultz,  N. Shenvi,  A. C. Simmonett,  A. Sodt,  
 D. Stuck,  K. S. Thanthiriwatte,  V. Vanovschi,  Tao Wang,  A. Warshel,  
 C. F. Williams,  Q. Wu,  X. Xu,  W. Zhang

 Please cite Q-Chem as follows:
 Y. Shao et al., Mol. Phys. 113, 184-215 (2015)
 DOI: 10.1080/00268976.2014.952696

 Q-Chem 5.1.1 for Intel X86 EM64T Linux

 Parts of Q-Chem use Armadillo 8.300.2 (Tropical Shenanigans).
 http://arma.sourceforge.net/

 Q-Chem begins on Fri Nov  6 12:35:58 2020  

Host: n0075.mhg0
0

     Scratch files written to /local/scratch/users/yhljason/P_wB97M2_aug-cc-pcVQZ.inp20201106122541//
The previous job contains 0 fragments, simply inherited here
Input Ideriv = 1
Curr. Ideriv = -1
Max.  Ideriv = 1

Checking the input file for inconsistencies... 	...done.

--------------------------------------------------------------
User input:
--------------------------------------------------------------
$molecule
read
$end

$rem

jobtype sp
method wb97m-v
xc_grid 000099000590
basis aug-cc-pcVQZ
max_scf_cycles 200
thresh 14
scf_convergence 8
mem_total 128000
cc_memory 96000
cc_backend xm
mem_static 1500
symmetry false
sym_ignore true
scf_guess read
unrestricted false
scf_algorithm gdm
n_frozen_core 0
gen_scfman true
$end

$multipole_field
Z -0.0001
$end



--------------------------------------------------------------
 ----------------------------------------------------------------
             Standard Nuclear Orientation (Angstroms)
    I     Atom           X                Y                Z
 ----------------------------------------------------------------
    1      P       0.0000000000     0.0000000000     0.0000000000
 ----------------------------------------------------------------
 Nuclear Repulsion Energy =     0.0000000000 hartrees
 There are        9 alpha and        6 beta electrons
 Requested basis set is aug-cc-pCVQZ
 There are 34 shells and 134 basis functions

 Total QAlloc Memory Limit 128000 MB
 Mega-Array Size      1467 MB
 MEM_STATIC part      1500 MB
 Applying Cartesian multipole field
    Component          Value
    ---------          -----
     (0,0,1)       -1.00000E-04
 A cutoff of  1.0D-14 yielded    595 shell pairs
 There are      9355 function pairs (     15897 Cartesian)
 
 -------------------------------------------------------
 OpenMP Integral Computing Module                       
 Release: version 1.0, May 2013, Q-Chem Inc. Pittsburgh 
 -------------------------------------------------------
 Integral Job Info:
 Integral job number is                      11
 Integral operator is                         1
 short-range coefficients              15000000
 long-range coefficients              100000000
 Omega coefficients                         300
 if combine SR and LR in K                    1
 Integral screening is                        0
 Integral computing path is                   2
 max size of driver memory is           3200000
 size of driver memory is               1704330
 size of scratch memory is             28840424
 max col of scratch BK array              50625
 max len of scratch array in speh3         2114
 max len of scratch index in speh4           50
 max int batch size is                      520
 min int batch size is                       52
 fixed nKL is                                21
 max L of basis functions is                  4
 order of int derivative is                   0
 number of shells is                         34
 number of basis is                         174
 number of cartesian basis is               174
 number of contracted shell pairs           595
 number of primitive shell pairs           3860
 maxK2 (contraction) of shell pair          169
 max number of K2 of shell pair               1
 max number of CS2 of shell pair             49
 max number of PS2 of shell pair           1014
 mem total for path MDJ                  631630
 -------------------------------------------------------
 Smallest overlap matrix eigenvalue = 3.31E-05
 Guess MOs from SCF MO coefficient file

 -----------------------------------------------------------------------
  General SCF calculation program by
  Eric Jon Sundstrom, Paul Horn, Yuezhi Mao, Dmitri Zuev, Alec White,
  David Stuck, Shaama M.S., Shane Yost, Joonho Lee, David Small,
  Daniel Levine, Susi Lehtola, Hugh Burton, Evgeny Epifanovsky
 -----------------------------------------------------------------------
 Exchange:     0.1500 Hartree-Fock + 1.0000 wB97M-V + LR-HF
 Correlation:  1.0000 wB97M-V
 Using Euler-Maclaurin-Lebedev (99,590) quadrature formula
 Nonlocal Correlation:  VV10 with C = 0.0100 and b = 6.00 and scale = 1.00000
 Grid used for NLC:  SG-1 standard quadrature
 using 16 threads for integral computing
 -------------------------------------------------------
 OpenMP Integral computing Module                
 Release: version 1.0, May 2013, Q-Chem Inc. Pittsburgh 
 -------------------------------------------------------
 using 16 threads for integral computing
 -------------------------------------------------------
 OpenMP Integral computing Module                
 Release: version 1.0, May 2013, Q-Chem Inc. Pittsburgh 
 -------------------------------------------------------
 -------------------------------------------------------
 OpenMP BLAS3 based DFT computing Module                
 Release: version 1.0, May 2013, Q-Chem Inc. Pittsburgh 
 -------------------------------------------------------
 -------------------------------------------------------
 OpenMP BLAS3 based DFT computing Module                
 Release: version 1.0, May 2013, Q-Chem Inc. Pittsburgh 
 -------------------------------------------------------
 -------------------------------------------------------
 OpenMP BLAS3 based DFT computing Module                
 Release: version 1.0, May 2013, Q-Chem Inc. Pittsburgh 
 -------------------------------------------------------
 Nonlocal correlation = 0.064457113871
 A restricted open-shell SCF calculation will be
 performed using GDM
 SCF converges when RMS gradient is below 1.0e-08
 ---------------------------------------
  Cycle       Energy        RMS Gradient
 ---------------------------------------
 Nonlocal correlation = 6.445711406888e-02
    1    -341.2516127919      6.09e-04   Normal BFGS step
 Nonlocal correlation = 6.445711400413e-02
    2    -341.2516132146      4.37e-04   Normal BFGS step
 Nonlocal correlation = 6.445711388034e-02
    3    -341.2516133374      5.42e-05   Normal BFGS step
 Nonlocal correlation = 6.445711387228e-02
    4    -341.2516133433      1.10e-05   Normal BFGS step
 Nonlocal correlation = 6.445711386925e-02
    5    -341.2516133438      2.40e-06   Normal BFGS step
 Nonlocal correlation = 6.445711387183e-02
    6    -341.2516133439      3.54e-07   Normal BFGS step
 Nonlocal correlation = 6.445711387092e-02
    7    -341.2516133439      8.56e-08   Normal BFGS step
 Nonlocal correlation = 6.445711387150e-02
    8    -341.2516133439      2.39e-08   Normal BFGS step
 Nonlocal correlation = 6.445711387111e-02
    9    -341.2516133439      6.17e-09  Convergence criterion met
The disked orbital energies are calculated using alpha and beta Focks
 ---------------------------------------
 SCF time:   CPU 472.76s  wall 32.00s 
<S^2> =          3.750000000
 SCF   energy in the final basis set =     -341.2516133439
 Total energy in the final basis set =     -341.2516133439
 
 --------------------------------------------------------------
 
                    Orbital Energies (a.u.)
 --------------------------------------------------------------
 
 Alpha MOs
 -- Occupied --
-77.409  -6.759  -4.874  -4.874  -4.874  -0.705  -0.346  -0.346
 -0.346
 -- Virtual --
  0.044   0.053   0.053   0.053   0.139   0.139   0.139   0.139
  0.139   0.322   0.322   0.322   0.355   0.399   0.399   0.399
  0.399   0.399   0.399   0.399   0.367   0.367   0.367   0.367
  0.367   0.985   0.985   0.985   0.985   0.985   1.132   1.132
  1.132   1.132   1.132   1.132   1.132   1.132   1.132   1.092
  1.092   1.092   1.092   1.092   1.092   1.092   1.138   1.138
  1.138   1.401   2.592   2.592   2.592   2.592   2.592   2.719
  2.719   2.719   2.719   2.719   2.719   2.719   2.993   2.993
  2.993   2.993   2.993   2.993   2.993   2.993   2.993   4.197
  4.197   4.197   6.144   8.201   8.201   8.201   8.201   8.201
[...]
 -- Virtual --
 -0.020  -0.020  -0.020   0.039   0.050   0.050   0.050   0.139
  0.139   0.139   0.139   0.139   0.331   0.331   0.331   0.368
  0.393   0.393   0.393   0.393   0.393   0.393   0.393   0.427
  0.427   0.427   0.427   0.427   1.050   1.050   1.050   1.050
  1.050   1.154   1.154   1.154   1.154   1.154   1.154   1.154
  1.154   1.154   1.170   1.170   1.170   1.170   1.170   1.170
  1.170   1.235   1.235   1.235   1.520   2.703   2.703   2.703
  2.703   2.703   2.871   2.871   2.871   2.871   2.871   2.871
  2.871   3.177   3.177   3.177   3.177   3.177   3.177   3.177
  3.177   3.177   4.296   4.296   4.296   6.206   8.284   8.284
  8.284   8.284   8.284  13.764  13.764  13.764  15.870  15.870
 15.870  15.870  15.870  15.870  15.870  22.324  26.710  26.710
 26.710  26.710  26.710  39.494  39.494  39.494  46.423  46.423
 46.423  46.423  46.423  46.423  46.423  46.423  46.423  56.573
 56.573  56.573  56.573  56.574  56.574  56.574  67.089  79.570
 79.570  79.570  79.573  79.573 124.349 124.349 124.349 322.133
 --------------------------------------------------------------
 
          Ground-State Mulliken Net Atomic Charges

     Atom                 Charge (a.u.)
  ----------------------------------------
      1 P                    -0.000000
  ----------------------------------------
  Sum of atomic charges =    -0.000000

 -----------------------------------------------------------------
                    Cartesian Multipole Moments
 -----------------------------------------------------------------
    Charge (ESU x 10^10)
                -0.0000
    Dipole Moment (Debye)
         X      -0.0000      Y       0.0000      Z       0.0070
       Tot       0.0070
    Quadrupole Moments (Debye-Ang)
        XX     -13.7492     XY       0.0000     YY     -13.7492
        XZ       0.0000     YZ      -0.0000     ZZ     -13.7492
    Octopole Moments (Debye-Ang^2)
       XXX      -0.0000    XXY       0.0000    XYY      -0.0000
       YYY      -0.0000    XXZ       0.0069    XYZ      -0.0000
       YYZ       0.0069    XZZ      -0.0000    YZZ       0.0000
       ZZZ       0.0206
    Hexadecapole Moments (Debye-Ang^3)
      XXXX     -23.6041   XXXY       0.0000   XXYY      -7.8680
      XYYY       0.0000   YYYY     -23.6041   XXXZ       0.0000
      XXYZ       0.0000   XYYZ       0.0000   YYYZ       0.0000
      XXZZ      -7.8681   XYZZ       0.0000   YYZZ      -7.8681
      XZZZ       0.0000   YZZZ       0.0000   ZZZZ     -23.6042
 -----------------------------------------------------------------

 STANDARD THERMODYNAMIC QUANTITIES AT   298.15 K  AND     1.00 ATM

   Translational Enthalpy:        0.889 kcal/mol
   Rotational Enthalpy:           0.000 kcal/mol
   Vibrational Enthalpy:          0.000 kcal/mol
   gas constant (RT):             0.592 kcal/mol
   Translational Entropy:        36.224  cal/mol.K
   Rotational Entropy:            0.000  cal/mol.K
   Vibrational Entropy:           0.000  cal/mol.K

   Total Enthalpy:                1.481 kcal/mol
   Total Entropy:                36.224  cal/mol.K

 -----------------------------------------------------------------

Archival summary:
1\1\n0075.mhg0\SP\ROProcedureUnspecified\BasisUnspecified\1(4)\yhljason\FriNov612:36:312020FriNov612:36:312020\0\\#,ROProcedureUnspecified,BasisUnspecified,\\0,4\P\\\@

 Total job time:  32.87s(wall), 486.40s(cpu) 
 Fri Nov  6 12:36:31 2020

        *************************************************************
        *                                                           *
        *  Thank you very much for using Q-Chem.  Have a nice day.  *
        *                                                           *
        *************************************************************


 
User input: 6 of 6 
 
Q-Chem Developer Version!
                  Welcome to Q-Chem
     A Quantum Leap Into The Future Of Chemistry


 Q-Chem 5.1, Q-Chem, Inc., Pleasanton, CA (2018)

 Yihan Shao,  Zhengting Gan,  E. Epifanovsky,  A. T. B. Gilbert,  M. Wormit,  
 J. Kussmann,  A. W. Lange,  A. Behn,  Jia Deng,  Xintian Feng,  D. Ghosh,  
 M. Goldey,  P. R. Horn,  L. D. Jacobson,  I. Kaliman,  T. Kus,  A. Landau,  
 Jie Liu,  E. I. Proynov,  R. M. Richard,  R. P. Steele,  E. J. Sundstrom,  
 H. L. Woodcock III,  P. M. Zimmerman,  D. Zuev,  B. Albrecht,  E. Alguire,  
 S. A. Baeppler,  D. Barton,  Z. Benda,  Y. A. Bernard,  E. J. Berquist,  
 K. B. Bravaya,  H. Burton,  D. Casanova,  Chun-Min Chang,  Yunqing Chen,  
 A. Chien,  K. D. Closser,  M. P. Coons,  S. Coriani,  S. Dasgupta,  
 A. L. Dempwolff,  M. Diedenhofen,  Hainam Do,  R. G. Edgar,  Po-Tung Fang,  
 S. Faraji,  S. Fatehi,  Qingguo Feng,  K. D. Fenk,  J. Fosso-Tande,  
 Qinghui Ge,  A. Ghysels,  G. Gidofalvi,  J. Gomes,  J. Gonthier,  A. Gunina,  
 D. Hait,  M. W. D. Hanson-Heine,  P. H. P. Harbach,  A. W. Hauser,  
 J. E. Herr,  E. G. Hohenstein,  Z. C. Holden,  Kerwin Hui,  B. C. Huynh,  
 T.-C. Jagau,  Hyunjun Ji,  B. Kaduk,  K. Khistyaev,  Jaehoon Kim,  
 P. Klunzinger,  K. Koh,  D. Kosenkov,  L. Koulias,  T. Kowalczyk,  
 C. M. Krauter,  A. Kunitsa,  Ka Un Lao,  A. Laurent,  K. V. Lawler,  
 Joonho Lee,  D. Lefrancois,  S. Lehtola,  D. S. Levine,  Yi-Pei Li,  
 You-Sheng Lin,  Fenglai Liu,  E. Livshits,  A. Luenser,  P. Manohar,  
 E. Mansoor,  S. F. Manzer,  Shan-Ping Mao,  Yuezhi Mao,  N. Mardirossian,  
 A. V. Marenich,  T. Markovich,  L. A. Martinez-Martinez,  S. A. Maurer,  
 N. J. Mayhall,  S. C. McKenzie,  J.-M. Mewes,  A. F. Morrison,  
 J. W. Mullinax,  K. Nanda,  T. S. Nguyen-Beck,  R. Olivares-Amaya,  
 J. A. Parkhill,  T. M. Perrine,  F. Plasser,  P. Pokhilko,  S. Prager,  
 A. Prociuk,  E. Ramos,  D. R. Rehn,  F. Rob,  M. Schneider,  N. Sergueev,  
 S. M. Sharada,  S. Sharma,  D. W. Small,  T. Stauch,  T. Stein,  
 Yu-Chuan Su,  A. J. W. Thom,  A. Tkatchenko,  T. Tsuchimochi,  N. M. Tubman,  
 L. Vogt,  M. L. Vidal,  O. Vydrov,  M. A. Watson,  J. Wenzel,  
 M. de Wergifosse,  T. A. Wesolowski,  A. White,  J. Witte,  A. Yamada,  
 Jun Yang,  K. Yao,  S. Yeganeh,  S. R. Yost,  Zhi-Qiang You,  A. Zech,  
 Igor Ying Zhang,  Xing Zhang,  Yan Zhao,  Ying Zhu,  B. R. Brooks,  
 G. K. L. Chan,  C. J. Cramer,  M. S. Gordon,  W. J. Hehre,  A. Klamt,  
 M. W. Schmidt,  C. D. Sherrill,  D. G. Truhlar,  A. Aspuru-Guzik,  R. Baer,  
 A. T. Bell,  N. A. Besley,  Jeng-Da Chai,  A. E. DePrince, III,  
 R. A. DiStasio Jr.,  A. Dreuw,  B. D. Dunietz,  T. R. Furlani,  
 Chao-Ping Hsu,  Yousung Jung,  Jing Kong,  D. S. Lambrecht,  WanZhen Liang,  
 C. Ochsenfeld,  V. A. Rassolov,  L. V. Slipchenko,  J. E. Subotnik,  
 T. Van Voorhis,  J. M. Herbert,  A. I. Krylov,  P. M. W. Gill,  M. Head-Gordon

 Contributors to earlier versions of Q-Chem not listed above: 
 R. D. Adamson,  B. Austin,  J. Baker,  G. J. O. Beran,  K. Brandhorst,  
 S. T. Brown,  E. F. C. Byrd,  A. K. Chakraborty,  C.-L. Cheng,  
 Siu Hung Chien,  D. M. Chipman,  D. L. Crittenden,  H. Dachsel,  
 R. J. Doerksen,  A. D. Dutoi,  L. Fusti-Molnar,  W. A. Goddard III,  
 A. Golubeva-Zadorozhnaya,  S. R. Gwaltney,  G. Hawkins,  A. Heyden,  
 S. Hirata,  G. Kedziora,  F. J. Keil,  C. Kelley,  Jihan Kim,  R. A. King,  
 R. Z. Khaliullin,  P. P. Korambath,  W. Kurlancheek,  A. M. Lee,  M. S. Lee,  
 S. V. Levchenko,  Ching Yeh Lin,  D. Liotard,  R. C. Lochan,  I. Lotan,  
 P. E. Maslen,  N. Nair,  D. P. O'Neill,  D. Neuhauser,  E. Neuscamman,  
 C. M. Oana,  R. Olson,  B. Peters,  R. Peverati,  P. A. Pieniazek,  
 Y. M. Rhee,  J. Ritchie,  M. A. Rohrdanz,  E. Rosta,  N. J. Russ,  
 H. F. Schaefer III,  N. E. Schultz,  N. Shenvi,  A. C. Simmonett,  A. Sodt,  
 D. Stuck,  K. S. Thanthiriwatte,  V. Vanovschi,  Tao Wang,  A. Warshel,  
 C. F. Williams,  Q. Wu,  X. Xu,  W. Zhang

 Please cite Q-Chem as follows:
 Y. Shao et al., Mol. Phys. 113, 184-215 (2015)
 DOI: 10.1080/00268976.2014.952696

 Q-Chem 5.1.1 for Intel X86 EM64T Linux

 Parts of Q-Chem use Armadillo 8.300.2 (Tropical Shenanigans).
 http://arma.sourceforge.net/

 Q-Chem begins on Fri Nov  6 12:36:31 2020  

Host: n0075.mhg0
0

     Scratch files written to /local/scratch/users/yhljason/P_wB97M2_aug-cc-pcVQZ.inp20201106122541//
The previous job contains 0 fragments, simply inherited here
Input Ideriv = 0
Curr. Ideriv = -1
Max.  Ideriv = 0
Input Ideriv = 1
Curr. Ideriv = 0
Max.  Ideriv = 0

Checking the input file for inconsistencies... 	...done.

--------------------------------------------------------------
User input:
--------------------------------------------------------------
$molecule
read
$end

$rem

jobtype sp
exchange wb97m(2)
xc_grid 000099000590
basis aug-cc-pcVQZ
max_scf_cycles 200
thresh 14
scf_convergence 8
mem_total 128000
cc_memory 96000
cc_backend xm
mem_static 1500
symmetry false
sym_ignore true
scf_guess read
unrestricted false
scf_algorithm gdm
n_frozen_core 0
$end

$multipole_field
Z -0.0001
$end


--------------------------------------------------------------
 ----------------------------------------------------------------
             Standard Nuclear Orientation (Angstroms)
    I     Atom           X                Y                Z
 ----------------------------------------------------------------
    1      P       0.0000000000     0.0000000000     0.0000000000
 ----------------------------------------------------------------
 Nuclear Repulsion Energy =     0.0000000000 hartrees
 There are        9 alpha and        6 beta electrons
 Requested basis set is aug-cc-pCVQZ
 There are 34 shells and 134 basis functions

 Total QAlloc Memory Limit 128000 MB
 Mega-Array Size      1467 MB
 MEM_STATIC part      1500 MB
 Applying Cartesian multipole field
    Component          Value
    ---------          -----
     (0,0,1)       -1.00000E-04
 A cutoff of  1.0D-14 yielded    595 shell pairs
 There are      9355 function pairs (     15897 Cartesian)
 
 -------------------------------------------------------
 OpenMP Integral Computing Module                       
 Release: version 1.0, May 2013, Q-Chem Inc. Pittsburgh 
 -------------------------------------------------------
 Integral Job Info:
 Integral job number is                      11
 Integral operator is                         1
 short-range coefficients              15000000
 long-range coefficients              100000000
 Omega coefficients                         300
 if combine SR and LR in K                    1
 Integral screening is                        0
 Integral computing path is                   2
 max size of driver memory is           3200000
 size of driver memory is               1704330
 size of scratch memory is             28840424
 max col of scratch BK array              50625
 max len of scratch array in speh3         2114
 max len of scratch index in speh4           50
 max int batch size is                      520
 min int batch size is                       52
 fixed nKL is                                21
 max L of basis functions is                  4
 order of int derivative is                   0
 number of shells is                         34
 number of basis is                         174
 number of cartesian basis is               174
 number of contracted shell pairs           595
 number of primitive shell pairs           3860
 maxK2 (contraction) of shell pair          169
 max number of K2 of shell pair               1
 max number of CS2 of shell pair             49
 max number of PS2 of shell pair           1014
 mem total for path MDJ                  631630
 -------------------------------------------------------
 Smallest overlap matrix eigenvalue = 3.31E-05
 Guess MOs from SCF MO coefficient file
 Reading MOs from coefficient file
 Reading MOs from coefficient file
 Long-range K will be added via erf
 Coulomb attenuation parameter = 0.3 bohr**(-1)
 A restricted hybrid HF-DFT SCF calculation will be
 performed using Geometric Direct Minimization
 Exchange:     0.1500 Hartree-Fock + 1.0000 wB97M-V + LR-HF
 Correlation:  1.0000 wB97M-V
 Using Euler-Maclaurin-Lebedev (99,590) quadrature formula
 Nonlocal Correlation:  VV10 with C = 0.0100 and b = 6.00 and scale = 1.00000
 Grid used for NLC:  SG-1 standard quadrature
 SCF converges when RMS gradient is below 1.0E-08
Using Q-Chem read-in guess as SCF_GUESS READ specified.

 using 16 threads for integral computing
 -------------------------------------------------------
 OpenMP Integral computing Module                
 Release: version 1.0, May 2013, Q-Chem Inc. Pittsburgh 
 -------------------------------------------------------
 using 16 threads for integral computing
 -------------------------------------------------------
 OpenMP Integral computing Module                
 Release: version 1.0, May 2013, Q-Chem Inc. Pittsburgh 
 -------------------------------------------------------
TIMEINFO->: J/JK contribution 39.26 sec.
 -------------------------------------------------------
 OpenMP BLAS3 based DFT computing Module                
 Release: version 1.0, May 2013, Q-Chem Inc. Pittsburgh 
 -------------------------------------------------------
 -------------------------------------------------------
 OpenMP BLAS3 based DFT computing Module                
 Release: version 1.0, May 2013, Q-Chem Inc. Pittsburgh 
 -------------------------------------------------------
 -------------------------------------------------------
 OpenMP BLAS3 based DFT computing Module                
 Release: version 1.0, May 2013, Q-Chem Inc. Pittsburgh 
 -------------------------------------------------------
 ---------------------------------------
  Cycle       Energy        RMS Gradient
 ---------------------------------------
    1    -341.2516133439      1.41E-09 Normal BFGS step
TIMEINFO->: J/JK contribution 39.50 sec.
   GDM::WARNING energy changes are now smaller than effective accuracy.
   GDM::        calculation will continue, but THRESH should be increased
   GDM::        or SCF_CONVERGENCE decreased.
   GDM::        effective_thresh =   9.000000000000000E-011
 Nonlocal correlation =     0.0206287256
    2    -341.2516133438      5.74E-10 Convergence criterion met
 ---------------------------------------
 wB97M-V orbitals are now ready for the wB97M(2) calculation.
 wB97M(2) energy = Exch (0.62194 SRHF + 1.0 LRHF + wB97M(2)_EXCH) + 
               Corr (wB97M(2)_CORR + 0.34096 MP2 + 0.65904 VV10(b=10))
 SCF time:  CPU 161.70 s  wall 10.37 s
 SCF   energy in the final basis set = -341.21098686
 Total energy in the final basis set = -341.21098686
 
 Components of the MP2 correlation energy:
        aaaa  correlation energy =        -0.0286427147 au
        abab  correlation energy =        -0.1284845690 au
        bbbb  correlation energy =        -0.0174943296 au
        non-Brillouin singles    =        -0.0001481246 au

 Total  MP2   correlation energy =                    -0.17476974 au
        MP2         total energy =                  -341.38575660 au
 
 --------------------------------------------------------------
 
                    Orbital Energies (a.u.)
 --------------------------------------------------------------
 
 Alpha MOs
 -- Occupied --
-77.409  -6.759  -4.874  -4.874  -4.874  -0.705  -0.346  -0.346
 -0.346
 -- Virtual --
  0.043   0.053   0.053   0.053   0.137   0.137   0.137   0.137
  0.137   0.321   0.321   0.321   0.354   0.366   0.366   0.366
  0.366   0.366   0.398   0.398   0.398   0.398   0.398   0.398
  0.398   0.987   0.987   0.987   0.987   0.987   1.092   1.092
  1.092   1.092   1.092   1.092   1.092   1.132   1.132   1.132
  1.132   1.132   1.132   1.132   1.132   1.132   1.139   1.139
  1.139   1.402   2.591   2.591   2.591   2.591   2.591   2.719
  2.719   2.719   2.719   2.719   2.719   2.719   2.993   2.993
  2.993   2.993   2.993   2.993   2.993   2.993   2.993   4.197
  4.197   4.197   6.145   8.203   8.203   8.203   8.203   8.203
 13.671  13.671  13.671  15.865  15.865  15.865  15.865  15.865
 15.865  15.865  22.280  26.676  26.676  26.676  26.676  26.676
 39.451  39.451  39.451  46.405  46.405  46.405  46.405  46.405
 46.405  46.405  46.405  46.405  56.546  56.546  56.546  56.546
 56.546  56.546  56.546  67.051  79.535  79.535  79.535  79.538
 79.538 124.330 124.330 124.330 322.109
 
 Beta MOs
 -- Occupied --
-77.396  -6.746  -4.852  -4.852  -4.852  -0.586
 -- Virtual --
 -0.020  -0.020  -0.020   0.039   0.050   0.050   0.050   0.140
  0.140   0.140   0.140   0.140   0.331   0.331   0.331   0.369
  0.427   0.427   0.427   0.427   0.427   0.393   0.393   0.393
  0.393   0.393   0.393   0.393   1.049   1.049   1.049   1.049
  1.049   1.170   1.170   1.170   1.170   1.170   1.170   1.170
  1.154   1.154   1.154   1.154   1.154   1.154   1.154   1.154
  1.154   1.235   1.235   1.235   1.519   2.703   2.703   2.703
  2.703   2.703   2.870   2.870   2.870   2.870   2.870   2.870
  2.870   3.177   3.177   3.177   3.177   3.177   3.177   3.177
  3.177   3.177   4.296   4.296   4.296   6.206   8.283   8.283
  8.283   8.283   8.283  13.764  13.764  13.764  15.870  15.870
 15.870  15.870  15.870  15.870  15.870  22.324  26.710  26.710
 26.710  26.710  26.710  39.494  39.494  39.494  46.423  46.423
 46.423  46.423  46.423  46.423  46.423  46.423  46.423  56.573
 56.573  56.573  56.573  56.574  56.574  56.574  67.089  79.570
 79.570  79.570  79.573  79.573 124.349 124.349 124.349 322.133
 --------------------------------------------------------------
 
          Ground-State Mulliken Net Atomic Charges

     Atom                 Charge (a.u.)
  ----------------------------------------
      1 P                    -0.000000
  ----------------------------------------
  Sum of atomic charges =    -0.000000

 -----------------------------------------------------------------
                    Cartesian Multipole Moments
 -----------------------------------------------------------------
    Charge (ESU x 10^10)
                 0.0000
    Dipole Moment (Debye)
         X      -0.0000      Y       0.0000      Z       0.0070
       Tot       0.0070
    Quadrupole Moments (Debye-Ang)
        XX     -13.7492     XY      -0.0000     YY     -13.7492
        XZ       0.0000     YZ      -0.0000     ZZ     -13.7492
    Octopole Moments (Debye-Ang^2)
       XXX      -0.0000    XXY      -0.0000    XYY      -0.0000
       YYY      -0.0000    XXZ       0.0069    XYZ      -0.0000
       YYZ       0.0069    XZZ       0.0000    YZZ      -0.0000
       ZZZ       0.0206
    Hexadecapole Moments (Debye-Ang^3)
      XXXX     -23.6041   XXXY      -0.0000   XXYY      -7.8680
      XYYY      -0.0000   YYYY     -23.6041   XXXZ      -0.0000
      XXYZ       0.0000   XYYZ       0.0000   YYYZ       0.0000
      XXZZ      -7.8681   XYZZ      -0.0000   YYZZ      -7.8681
      XZZZ       0.0000   YZZZ       0.0000   ZZZZ     -23.6042
 -----------------------------------------------------------------

 STANDARD THERMODYNAMIC QUANTITIES AT   298.15 K  AND     1.00 ATM

   Translational Enthalpy:        0.889 kcal/mol
   Rotational Enthalpy:           0.000 kcal/mol
   Vibrational Enthalpy:          0.000 kcal/mol
   gas constant (RT):             0.592 kcal/mol
   Translational Entropy:        36.224  cal/mol.K
   Rotational Entropy:            0.000  cal/mol.K
   Vibrational Entropy:           0.000  cal/mol.K

   Total Enthalpy:                1.481 kcal/mol
   Total Entropy:                36.224  cal/mol.K

 -----------------------------------------------------------------

Archival summary:
1\1\n0075.mhg0\SP\ROProcedureUnspecified\BasisUnspecified\1(4)\yhljason\FriNov612:37:472020FriNov612:37:472020\0\\#,ROProcedureUnspecified,BasisUnspecified,\\0,4\P\\\@

 Total job time:  76.48s(wall), 1212.16s(cpu) 
 Fri Nov  6 12:37:47 2020

        *************************************************************
        *                                                           *
        *  Thank you very much for using Q-Chem.  Have a nice day.  *
        *                                                           *
        *************************************************************


