Q-Chem Developer Version!
                  Welcome to Q-Chem
     A Quantum Leap Into The Future Of Chemistry


 Q-Chem 5.1, Q-Chem, Inc., Pleasanton, CA (2018)

 Yihan Shao,  Zhengting Gan,  E. Epifanovsky,  A. T. B. Gilbert,  M. Wormit,  
 J. Kussmann,  A. W. Lange,  A. Behn,  Jia Deng,  Xintian Feng,  D. Ghosh,  
 M. Goldey,  P. R. Horn,  L. D. Jacobson,  I. Kaliman,  T. Kus,  A. Landau,  
 Jie Liu,  E. I. Proynov,  R. M. Richard,  R. P. Steele,  E. J. Sundstrom,  
 H. L. Woodcock III,  P. M. Zimmerman,  D. Zuev,  B. Albrecht,  E. Alguire,  
 S. A. Baeppler,  D. Barton,  Z. Benda,  Y. A. Bernard,  E. J. Berquist,  
 K. B. Bravaya,  H. Burton,  D. Casanova,  Chun-Min Chang,  Yunqing Chen,  
 A. Chien,  K. D. Closser,  M. P. Coons,  S. Coriani,  S. Dasgupta,  
 A. L. Dempwolff,  M. Diedenhofen,  Hainam Do,  R. G. Edgar,  Po-Tung Fang,  
 S. Faraji,  S. Fatehi,  Qingguo Feng,  K. D. Fenk,  J. Fosso-Tande,  
 Qinghui Ge,  A. Ghysels,  G. Gidofalvi,  J. Gomes,  J. Gonthier,  A. Gunina,  
 D. Hait,  M. W. D. Hanson-Heine,  P. H. P. Harbach,  A. W. Hauser,  
 J. E. Herr,  E. G. Hohenstein,  Z. C. Holden,  Kerwin Hui,  B. C. Huynh,  
 T.-C. Jagau,  Hyunjun Ji,  B. Kaduk,  K. Khistyaev,  Jaehoon Kim,  
 P. Klunzinger,  K. Koh,  D. Kosenkov,  L. Koulias,  T. Kowalczyk,  
 C. M. Krauter,  A. Kunitsa,  Ka Un Lao,  A. Laurent,  K. V. Lawler,  
 Joonho Lee,  D. Lefrancois,  S. Lehtola,  D. S. Levine,  Yi-Pei Li,  
 You-Sheng Lin,  Fenglai Liu,  E. Livshits,  A. Luenser,  P. Manohar,  
 E. Mansoor,  S. F. Manzer,  Shan-Ping Mao,  Yuezhi Mao,  N. Mardirossian,  
 A. V. Marenich,  T. Markovich,  L. A. Martinez-Martinez,  S. A. Maurer,  
 N. J. Mayhall,  S. C. McKenzie,  J.-M. Mewes,  A. F. Morrison,  
 J. W. Mullinax,  K. Nanda,  T. S. Nguyen-Beck,  R. Olivares-Amaya,  
 J. A. Parkhill,  T. M. Perrine,  F. Plasser,  P. Pokhilko,  S. Prager,  
 A. Prociuk,  E. Ramos,  D. R. Rehn,  F. Rob,  M. Schneider,  N. Sergueev,  
 S. M. Sharada,  S. Sharma,  D. W. Small,  T. Stauch,  T. Stein,  
 Yu-Chuan Su,  A. J. W. Thom,  A. Tkatchenko,  T. Tsuchimochi,  N. M. Tubman,  
 L. Vogt,  M. L. Vidal,  O. Vydrov,  M. A. Watson,  J. Wenzel,  
 M. de Wergifosse,  T. A. Wesolowski,  A. White,  J. Witte,  A. Yamada,  
 Jun Yang,  K. Yao,  S. Yeganeh,  S. R. Yost,  Zhi-Qiang You,  A. Zech,  
 Igor Ying Zhang,  Xing Zhang,  Yan Zhao,  Ying Zhu,  B. R. Brooks,  
 G. K. L. Chan,  C. J. Cramer,  M. S. Gordon,  W. J. Hehre,  A. Klamt,  
 M. W. Schmidt,  C. D. Sherrill,  D. G. Truhlar,  A. Aspuru-Guzik,  R. Baer,  
 A. T. Bell,  N. A. Besley,  Jeng-Da Chai,  A. E. DePrince, III,  
 R. A. DiStasio Jr.,  A. Dreuw,  B. D. Dunietz,  T. R. Furlani,  
 Chao-Ping Hsu,  Yousung Jung,  Jing Kong,  D. S. Lambrecht,  WanZhen Liang,  
 C. Ochsenfeld,  V. A. Rassolov,  L. V. Slipchenko,  J. E. Subotnik,  
 T. Van Voorhis,  J. M. Herbert,  A. I. Krylov,  P. M. W. Gill,  M. Head-Gordon

 Contributors to earlier versions of Q-Chem not listed above: 
 R. D. Adamson,  B. Austin,  J. Baker,  G. J. O. Beran,  K. Brandhorst,  
 S. T. Brown,  E. F. C. Byrd,  A. K. Chakraborty,  C.-L. Cheng,  
 Siu Hung Chien,  D. M. Chipman,  D. L. Crittenden,  H. Dachsel,  
 R. J. Doerksen,  A. D. Dutoi,  L. Fusti-Molnar,  W. A. Goddard III,  
 A. Golubeva-Zadorozhnaya,  S. R. Gwaltney,  G. Hawkins,  A. Heyden,  
 S. Hirata,  G. Kedziora,  F. J. Keil,  C. Kelley,  Jihan Kim,  R. A. King,  
 R. Z. Khaliullin,  P. P. Korambath,  W. Kurlancheek,  A. M. Lee,  M. S. Lee,  
 S. V. Levchenko,  Ching Yeh Lin,  D. Liotard,  R. C. Lochan,  I. Lotan,  
 P. E. Maslen,  N. Nair,  D. P. O'Neill,  D. Neuhauser,  E. Neuscamman,  
 C. M. Oana,  R. Olson,  B. Peters,  R. Peverati,  P. A. Pieniazek,  
 Y. M. Rhee,  J. Ritchie,  M. A. Rohrdanz,  E. Rosta,  N. J. Russ,  
 H. F. Schaefer III,  N. E. Schultz,  N. Shenvi,  A. C. Simmonett,  A. Sodt,  
 D. Stuck,  K. S. Thanthiriwatte,  V. Vanovschi,  Tao Wang,  A. Warshel,  
 C. F. Williams,  Q. Wu,  X. Xu,  W. Zhang

 Please cite Q-Chem as follows:
 Y. Shao et al., Mol. Phys. 113, 184-215 (2015)
 DOI: 10.1080/00268976.2014.952696

 Q-Chem 5.1.1 for Intel X86 EM64T Linux

 Parts of Q-Chem use Armadillo 8.300.2 (Tropical Shenanigans).
 http://arma.sourceforge.net/

 Q-Chem begins on Fri Nov  6 12:29:09 2020  

Host: n0045.mhg0
0

     Scratch files written to /local/scratch/users/yhljason/PH2_wB97M2_aug-cc-pcVTZ.inp20201106122540//
Input Ideriv = 1
Curr. Ideriv = -1
Max.  Ideriv = 1

Checking the input file for inconsistencies... 	...done.

--------------------------------------------------------------
User input:
--------------------------------------------------------------
$molecule
0 2
P1	0.0000	0.0000	0.0000
H2	0.0000	1.0229	0.9964
H3	0.0000	-1.0229	0.9964
$end

$rem
jobtype sp
method wB97M-V
xc_grid 000099000590
basis aug-cc-pcVTZ
max_scf_cycles 200
thresh 14
scf_convergence 8
scf_algorithm gdm
symmetry false
sym_ignore true
unrestricted false
gen_scfman true
internal_stability_iter 15
internal_stability_davidson_iter 200
mem_total 128000
n_frozen_core 0
$end



--------------------------------------------------------------
 ----------------------------------------------------------------
             Standard Nuclear Orientation (Angstroms)
    I     Atom           X                Y                Z
 ----------------------------------------------------------------
    1      P       0.0000000000     0.0000000000     0.0000000000
    2      H       0.0000000000     1.0229000000     0.9964000000
    3      H       0.0000000000    -1.0229000000     0.9964000000
 ----------------------------------------------------------------
 Nuclear Repulsion Energy =    11.3759605773 hartrees
 There are        9 alpha and        8 beta electrons
 Requested basis set is aug-cc-pCVTZ
 There are 41 shells and 121 basis functions

 Total QAlloc Memory Limit 128000 MB
 Mega-Array Size       188 MB
 MEM_STATIC part       192 MB

                       Distance Matrix (Angstroms)
             P (  1)   H (  2)
   H (  2)  1.427984
   H (  3)  1.427984  2.045800
 
 A cutoff of  1.0D-14 yielded    861 shell pairs
 There are      7573 function pairs (     10039 Cartesian)
 
 -------------------------------------------------------
 OpenMP Integral Computing Module                       
 Release: version 1.0, May 2013, Q-Chem Inc. Pittsburgh 
 -------------------------------------------------------
 Integral Job Info:
 Integral job number is                      11
 Integral operator is                         1
 short-range coefficients              15000000
 long-range coefficients              100000000
 Omega coefficients                         300
 if combine SR and LR in K                    1
 Integral screening is                        0
 Integral computing path is                   2
 max size of driver memory is            800000
 size of driver memory is                776718
 size of scratch memory is             29504930
 max col of scratch BK array              10000
 max len of scratch array in speh3          662
 max len of scratch index in speh4           32
 max int batch size is                      520
 min int batch size is                       52
 fixed nKL is                                30
 max L of basis functions is                  3
 order of int derivative is                   0
 number of shells is                         41
 number of basis is                         139
 number of cartesian basis is               139
 number of contracted shell pairs           861
 number of primitive shell pairs           4503
 maxK2 (contraction) of shell pair          169
 max number of K2 of shell pair               1
 max number of CS2 of shell pair            121
 max number of PS2 of shell pair           1014
 mem total for path MDJ                  544630
 -------------------------------------------------------
 Smallest overlap matrix eigenvalue = 2.13E-04

 Scale SEOQF with 1.000000e-01/1.000000e-01/1.000000e-01

 Standard Electronic Orientation quadrupole field applied
 Guess from superposition of atomic densities
 Warning:  Energy on first SCF cycle will be non-variational
 SAD guess density has 17.000000 electrons

 -----------------------------------------------------------------------
  General SCF calculation program by
  Eric Jon Sundstrom, Paul Horn, Yuezhi Mao, Dmitri Zuev, Alec White,
  David Stuck, Shaama M.S., Shane Yost, Joonho Lee, David Small,
  Daniel Levine, Susi Lehtola, Hugh Burton, Evgeny Epifanovsky
 -----------------------------------------------------------------------
 Exchange:     0.1500 Hartree-Fock + 1.0000 wB97M-V + LR-HF
 Correlation:  1.0000 wB97M-V
 Using Euler-Maclaurin-Lebedev (99,590) quadrature formula
 Nonlocal Correlation:  VV10 with C = 0.0100 and b = 6.00 and scale = 1.00000
 Grid used for NLC:  SG-1 standard quadrature
Running Object-Oriented ROKS (ROHF)
ROHF occupied orbitals are orthonormal
ROHF occupied orbitals are orthogonal to virtual orbitals
ROHF virtual orbitals are orthonormal
 Nonlocal correlation = 0.071380726653
We will preform up to 15 macro iterations over saddle points until a stable solution is found
Energy prior to optimization (guess energy) = -342.340617913930
Begin Timing: Total SCF Calculation
Begin Timing: SCF Single Stationary Point Calculation
begin iterations for algorithm: GDM          
the SCF tolerance is set to 1.00e-08
 Nonlocal correlation = 7.163281348619e-02
    1    -342.3406179139      2.37e-01     00000  Descent step
 Nonlocal correlation = 7.177922251048e-02
    2    -342.4673068991      6.08e-02     00000  Normal BFGS step
 Nonlocal correlation = 7.177280473578e-02
    3    -342.4864456798      8.63e-03     00000  Normal BFGS step
 Nonlocal correlation = 7.177376407191e-02
    4    -342.4868773611      2.11e-03     00000  Normal BFGS step
 Nonlocal correlation = 7.177371135245e-02
    5    -342.4869139030      3.53e-04     00000  Normal BFGS step
 Nonlocal correlation = 7.177390155322e-02
    6    -342.4869150397      1.32e-04     00000  Normal BFGS step
 Nonlocal correlation = 7.177388464594e-02
    7    -342.4869151448      2.70e-05     00000  Normal BFGS step
 Nonlocal correlation = 7.177388590657e-02
    8    -342.4869151481      8.66e-06     00000  Normal BFGS step
 Nonlocal correlation = 7.177388588474e-02
    9    -342.4869151483      1.96e-06     00000  Normal BFGS step
 Nonlocal correlation = 7.177388608110e-02
   10    -342.4869151484      3.21e-07     00000  Normal BFGS step
 Nonlocal correlation = 7.177388616894e-02
   11    -342.4869151484      7.17e-08     00000  Normal BFGS step
 Nonlocal correlation = 7.177388619041e-02
   12    -342.4869151484      2.27e-08     00000  Normal BFGS step
 Nonlocal correlation = 7.177388619732e-02
   13    -342.4869151484      4.90e-09     00000 Convergence criterion met
The disked orbital energies are calculated using alpha and beta Focks
Timing for Single Stationary Point: 28.00s (wall), 427.29s (cpu)
Begin Timing: Stability
===================================================
Beginning Test for Internal Stability
===================================================
generating davidson guess vectors based on koopmans-like excitations
computing hessian-vector products by finite difference
 Nonlocal correlation = 0.071773886114
 Nonlocal correlation = 0.071773886277
 Nonlocal correlation = 0.071773886408
 Nonlocal correlation = 0.071773885980
 Nonlocal correlation = 0.071773886197
    1      2.67e-01     00000 Davidson Iteration
computing hessian-vector products by finite difference
 Nonlocal correlation = 7.177388553779e-02
 Nonlocal correlation = 7.177388686310e-02
 Nonlocal correlation = 7.177388987058e-02
 Nonlocal correlation = 7.177388253722e-02
 Nonlocal correlation = 7.177388619732e-02
    2      8.71e-02     00000 Davidson Iteration
computing hessian-vector products by finite difference
 Nonlocal correlation = 7.177388650078e-02
 Nonlocal correlation = 7.177388589772e-02
 Nonlocal correlation = 7.177389581569e-02
 Nonlocal correlation = 7.177387658745e-02
 Nonlocal correlation = 7.177388619732e-02
    3      1.24e-01     00000 Davidson Iteration
computing hessian-vector products by finite difference
 Nonlocal correlation = 7.177384893583e-02
 Nonlocal correlation = 7.177392345882e-02
 Nonlocal correlation = 7.177388810916e-02
 Nonlocal correlation = 7.177388430146e-02
 Nonlocal correlation = 7.177388619732e-02
    4      3.19e-02     00000 Davidson Iteration
computing hessian-vector products by finite difference
 Nonlocal correlation = 7.177378612134e-02
 Nonlocal correlation = 7.177398627669e-02
 Nonlocal correlation = 7.177389124593e-02
 Nonlocal correlation = 7.177388115804e-02
 Nonlocal correlation = 7.177388619732e-02
    5      1.19e-02     00000 Davidson Iteration
computing hessian-vector products by finite difference
 Nonlocal correlation = 7.177394963105e-02
 Nonlocal correlation = 7.177382276756e-02
 Nonlocal correlation = 7.177389463731e-02
 Nonlocal correlation = 7.177387775141e-02
 Nonlocal correlation = 7.177388619732e-02
    6      3.88e-03     00000 Davidson Iteration
computing hessian-vector products by finite difference
 Nonlocal correlation = 7.177381214578e-02
 Nonlocal correlation = 7.177396025517e-02
 Nonlocal correlation = 7.177391112265e-02
 Nonlocal correlation = 7.177386127497e-02
 Nonlocal correlation = 7.177388619732e-02
    7      1.21e-03     00000 Davidson Iteration
computing hessian-vector products by finite difference
 Nonlocal correlation = 7.177406104389e-02
 Nonlocal correlation = 7.177371135093e-02
 Nonlocal correlation = 7.177388835761e-02
 Nonlocal correlation = 7.177388404042e-02
 Nonlocal correlation = 7.177388619732e-02
    8      2.78e-04     00000 Davidson Iteration
computing hessian-vector products by finite difference
 Nonlocal correlation = 7.177393212108e-02
 Nonlocal correlation = 7.177384027544e-02
 Nonlocal correlation = 7.177394931623e-02
 Nonlocal correlation = 7.177382308561e-02
 Nonlocal correlation = 7.177388619732e-02
    9      4.99e-04     00000 Davidson Converged
converged_eigenvalues
   0.1932
   0.3489
Threshold for negative eigenvalues: -1.0e-05
solution was a local minimum (stable)
===================================================
End Test for Internal Stability
===================================================
Our SCF solution is stable!
The disked orbital energies are calculated using alpha and beta Focks
Timing for Total SCF: 125.00s (wall), 1912.70s (cpu)
 Total energy in the final basis set =     -342.4869151484
<S^2> =          0.750000000
    ==================================================
              The end of Object-Oriented SCFman       
    ==================================================
 
 --------------------------------------------------------------
 
                    Orbital Energies (a.u.)
 --------------------------------------------------------------
 
 Alpha MOs
 -- Occupied --
-77.382  -6.734  -4.852  -4.844  -4.842  -0.749  -0.483  -0.406
 -0.331
 -- Virtual --
  0.013   0.040   0.060   0.066   0.064   0.116   0.126   0.142
  0.164   0.169   0.172   0.244   0.264   0.278   0.283   0.299
  0.301   0.305   0.315   0.453   0.454   0.459   0.477   0.468
  0.485   0.476   0.584   0.602   0.615   0.659   0.673   0.685
  0.688   0.689   0.744   0.851   0.867   0.915   0.932   0.932
  0.934   0.988   0.994   1.023   1.083   1.081   1.138   1.369
  1.368   1.371   1.377   1.409   1.398   1.400   1.464   1.472
  1.654   1.677   1.680   1.765   1.861   1.901   1.979   2.078
  2.089   2.174   2.273   2.495   2.549   3.082   3.204   3.649
  3.683   3.706   3.771   3.865   3.874   3.922   4.050   4.117
  4.135   4.131   4.166   4.273   4.255   4.807   4.840   7.109
  7.110   7.177   7.521   7.962   9.671   9.926  10.019  12.102
 26.537  26.538  26.540  26.541  26.546  26.556  26.557  32.825
 32.825  32.853  33.021  33.252  41.188  41.467  41.567  70.907
 
 Beta MOs
 -- Occupied --
-77.378  -6.730  -4.837  -4.842  -4.839  -0.720  -0.474  -0.390
 -- Virtual --
 -0.042   0.012   0.039   0.059   0.063   0.065   0.117   0.131
  0.144   0.163   0.168   0.173   0.244   0.264   0.277   0.285
  0.295   0.300   0.312   0.315   0.457   0.458   0.472   0.474
  0.498   0.501   0.504   0.582   0.613   0.617   0.661   0.675
  0.692   0.694   0.694   0.753   0.859   0.872   0.915   0.932
  0.933   0.939   0.992   0.998   1.024   1.093   1.100   1.138
  1.377   1.386   1.396   1.396   1.420   1.438   1.439   1.473
  1.484   1.695   1.713   1.723   1.835   1.888   1.917   2.016
  2.094   2.111   2.243   2.296   2.517   2.592   3.098   3.228
  3.659   3.699   3.719   3.783   3.883   3.917   3.960   4.077
  4.133   4.158   4.171   4.182   4.280   4.295   4.829   4.866
  7.119   7.120   7.181   7.544   7.976   9.711   9.938  10.034
 12.129  26.541  26.543  26.546  26.547  26.550  26.559  26.560
 32.837  32.837  32.856  33.037  33.256  41.205  41.471  41.572
 70.919
 --------------------------------------------------------------
 
          Ground-State Mulliken Net Atomic Charges

     Atom                 Charge (a.u.)
  ----------------------------------------
      1 P                    -0.360871
      2 H                     0.180436
      3 H                     0.180436
  ----------------------------------------
  Sum of atomic charges =    -0.000000

 -----------------------------------------------------------------
                    Cartesian Multipole Moments
 -----------------------------------------------------------------
    Charge (ESU x 10^10)
                -0.0000
    Dipole Moment (Debye)
         X       0.0000      Y      -0.0000      Z       0.4880
       Tot       0.4880
    Quadrupole Moments (Debye-Ang)
        XX     -15.4097     XY       0.0000     YY     -14.2154
        XZ      -0.0000     YZ      -0.0000     ZZ     -15.5387
    Octopole Moments (Debye-Ang^2)
       XXX       0.0000    XXY      -0.0000    XYY       0.0000
       YYY      -0.0000    XXZ      -1.6043    XYZ       0.0000
       YYZ      -1.4994    XZZ       0.0000    YZZ      -0.0000
       ZZZ      -4.8682
    Hexadecapole Moments (Debye-Ang^3)
      XXXX     -25.2390   XXXY       0.0000   XXYY      -9.8022
      XYYY       0.0000   YYYY     -31.8659   XXXZ      -0.0000
      XXYZ      -0.0000   XYYZ      -0.0000   YYYZ      -0.0000
      XXZZ     -10.4508   XYZZ       0.0000   YYZZ     -10.5233
      XZZZ      -0.0000   YZZZ      -0.0000   ZZZZ     -36.2913
 -----------------------------------------------------------------
Archival summary:
1\1\n0045.mhg0\SP\ROProcedureUnspecified\BasisUnspecified\12(2)\yhljason\FriNov612:31:172020FriNov612:31:172020\0\\#,ROProcedureUnspecified,BasisUnspecified,\\0,2\P\H,1,1.42798\H,1,1.42798,2,91.5037\\\@

 Total job time:  128.11s(wall), 1952.71s(cpu) 
 Fri Nov  6 12:31:17 2020

        *************************************************************
        *                                                           *
        *  Thank you very much for using Q-Chem.  Have a nice day.  *
        *                                                           *
        *************************************************************


 
User input: 2 of 6 
 
Q-Chem Developer Version!
                  Welcome to Q-Chem
     A Quantum Leap Into The Future Of Chemistry


 Q-Chem 5.1, Q-Chem, Inc., Pleasanton, CA (2018)

 Yihan Shao,  Zhengting Gan,  E. Epifanovsky,  A. T. B. Gilbert,  M. Wormit,  
 J. Kussmann,  A. W. Lange,  A. Behn,  Jia Deng,  Xintian Feng,  D. Ghosh,  
 M. Goldey,  P. R. Horn,  L. D. Jacobson,  I. Kaliman,  T. Kus,  A. Landau,  
 Jie Liu,  E. I. Proynov,  R. M. Richard,  R. P. Steele,  E. J. Sundstrom,  
 H. L. Woodcock III,  P. M. Zimmerman,  D. Zuev,  B. Albrecht,  E. Alguire,  
 S. A. Baeppler,  D. Barton,  Z. Benda,  Y. A. Bernard,  E. J. Berquist,  
 K. B. Bravaya,  H. Burton,  D. Casanova,  Chun-Min Chang,  Yunqing Chen,  
 A. Chien,  K. D. Closser,  M. P. Coons,  S. Coriani,  S. Dasgupta,  
 A. L. Dempwolff,  M. Diedenhofen,  Hainam Do,  R. G. Edgar,  Po-Tung Fang,  
 S. Faraji,  S. Fatehi,  Qingguo Feng,  K. D. Fenk,  J. Fosso-Tande,  
 Qinghui Ge,  A. Ghysels,  G. Gidofalvi,  J. Gomes,  J. Gonthier,  A. Gunina,  
 D. Hait,  M. W. D. Hanson-Heine,  P. H. P. Harbach,  A. W. Hauser,  
 J. E. Herr,  E. G. Hohenstein,  Z. C. Holden,  Kerwin Hui,  B. C. Huynh,  
 T.-C. Jagau,  Hyunjun Ji,  B. Kaduk,  K. Khistyaev,  Jaehoon Kim,  
 P. Klunzinger,  K. Koh,  D. Kosenkov,  L. Koulias,  T. Kowalczyk,  
 C. M. Krauter,  A. Kunitsa,  Ka Un Lao,  A. Laurent,  K. V. Lawler,  
 Joonho Lee,  D. Lefrancois,  S. Lehtola,  D. S. Levine,  Yi-Pei Li,  
 You-Sheng Lin,  Fenglai Liu,  E. Livshits,  A. Luenser,  P. Manohar,  
 E. Mansoor,  S. F. Manzer,  Shan-Ping Mao,  Yuezhi Mao,  N. Mardirossian,  
 A. V. Marenich,  T. Markovich,  L. A. Martinez-Martinez,  S. A. Maurer,  
 N. J. Mayhall,  S. C. McKenzie,  J.-M. Mewes,  A. F. Morrison,  
 J. W. Mullinax,  K. Nanda,  T. S. Nguyen-Beck,  R. Olivares-Amaya,  
 J. A. Parkhill,  T. M. Perrine,  F. Plasser,  P. Pokhilko,  S. Prager,  
 A. Prociuk,  E. Ramos,  D. R. Rehn,  F. Rob,  M. Schneider,  N. Sergueev,  
 S. M. Sharada,  S. Sharma,  D. W. Small,  T. Stauch,  T. Stein,  
 Yu-Chuan Su,  A. J. W. Thom,  A. Tkatchenko,  T. Tsuchimochi,  N. M. Tubman,  
 L. Vogt,  M. L. Vidal,  O. Vydrov,  M. A. Watson,  J. Wenzel,  
 M. de Wergifosse,  T. A. Wesolowski,  A. White,  J. Witte,  A. Yamada,  
 Jun Yang,  K. Yao,  S. Yeganeh,  S. R. Yost,  Zhi-Qiang You,  A. Zech,  
 Igor Ying Zhang,  Xing Zhang,  Yan Zhao,  Ying Zhu,  B. R. Brooks,  
 G. K. L. Chan,  C. J. Cramer,  M. S. Gordon,  W. J. Hehre,  A. Klamt,  
 M. W. Schmidt,  C. D. Sherrill,  D. G. Truhlar,  A. Aspuru-Guzik,  R. Baer,  
 A. T. Bell,  N. A. Besley,  Jeng-Da Chai,  A. E. DePrince, III,  
 R. A. DiStasio Jr.,  A. Dreuw,  B. D. Dunietz,  T. R. Furlani,  
 Chao-Ping Hsu,  Yousung Jung,  Jing Kong,  D. S. Lambrecht,  WanZhen Liang,  
 C. Ochsenfeld,  V. A. Rassolov,  L. V. Slipchenko,  J. E. Subotnik,  
 T. Van Voorhis,  J. M. Herbert,  A. I. Krylov,  P. M. W. Gill,  M. Head-Gordon

 Contributors to earlier versions of Q-Chem not listed above: 
 R. D. Adamson,  B. Austin,  J. Baker,  G. J. O. Beran,  K. Brandhorst,  
 S. T. Brown,  E. F. C. Byrd,  A. K. Chakraborty,  C.-L. Cheng,  
 Siu Hung Chien,  D. M. Chipman,  D. L. Crittenden,  H. Dachsel,  
 R. J. Doerksen,  A. D. Dutoi,  L. Fusti-Molnar,  W. A. Goddard III,  
 A. Golubeva-Zadorozhnaya,  S. R. Gwaltney,  G. Hawkins,  A. Heyden,  
 S. Hirata,  G. Kedziora,  F. J. Keil,  C. Kelley,  Jihan Kim,  R. A. King,  
 R. Z. Khaliullin,  P. P. Korambath,  W. Kurlancheek,  A. M. Lee,  M. S. Lee,  
 S. V. Levchenko,  Ching Yeh Lin,  D. Liotard,  R. C. Lochan,  I. Lotan,  
 P. E. Maslen,  N. Nair,  D. P. O'Neill,  D. Neuhauser,  E. Neuscamman,  
 C. M. Oana,  R. Olson,  B. Peters,  R. Peverati,  P. A. Pieniazek,  
 Y. M. Rhee,  J. Ritchie,  M. A. Rohrdanz,  E. Rosta,  N. J. Russ,  
 H. F. Schaefer III,  N. E. Schultz,  N. Shenvi,  A. C. Simmonett,  A. Sodt,  
 D. Stuck,  K. S. Thanthiriwatte,  V. Vanovschi,  Tao Wang,  A. Warshel,  
 C. F. Williams,  Q. Wu,  X. Xu,  W. Zhang

 Please cite Q-Chem as follows:
 Y. Shao et al., Mol. Phys. 113, 184-215 (2015)
 DOI: 10.1080/00268976.2014.952696

 Q-Chem 5.1.1 for Intel X86 EM64T Linux

 Parts of Q-Chem use Armadillo 8.300.2 (Tropical Shenanigans).
 http://arma.sourceforge.net/

 Q-Chem begins on Fri Nov  6 12:31:18 2020  

Host: n0045.mhg0
0

     Scratch files written to /local/scratch/users/yhljason/PH2_wB97M2_aug-cc-pcVTZ.inp20201106122540//
The previous job contains 0 fragments, simply inherited here
Input Ideriv = 0
Curr. Ideriv = -1
Max.  Ideriv = 0
Input Ideriv = 1
Curr. Ideriv = 0
Max.  Ideriv = 0

Checking the input file for inconsistencies... 	...done.

--------------------------------------------------------------
User input:
--------------------------------------------------------------
$molecule
read
$end

$rem
jobtype sp
exchange wB97M(2)
xc_grid 000099000590
basis aug-cc-pcVTZ
max_scf_cycles 200
thresh 14
scf_convergence 8
scf_algorithm gdm
symmetry false
sym_ignore true
unrestricted false
gen_scfman false
mem_total 128000
cc_memory 96000
cc_backend xm
mem_static 1500
n_frozen_core 0
scf_guess read
$end



--------------------------------------------------------------
 ----------------------------------------------------------------
             Standard Nuclear Orientation (Angstroms)
    I     Atom           X                Y                Z
 ----------------------------------------------------------------
    1      P       0.0000000000     0.0000000000     0.0000000000
    2      H       0.0000000000     1.0229000000     0.9964000000
    3      H       0.0000000000    -1.0229000000     0.9964000000
 ----------------------------------------------------------------
 Nuclear Repulsion Energy =    11.3759605773 hartrees
 There are        9 alpha and        8 beta electrons
 Requested basis set is aug-cc-pCVTZ
 There are 41 shells and 121 basis functions

 Total QAlloc Memory Limit 128000 MB
 Mega-Array Size      1467 MB
 MEM_STATIC part      1500 MB

                       Distance Matrix (Angstroms)
             P (  1)   H (  2)
   H (  2)  1.427984
   H (  3)  1.427984  2.045800
 
 A cutoff of  1.0D-14 yielded    861 shell pairs
 There are      7573 function pairs (     10039 Cartesian)
 
 -------------------------------------------------------
 OpenMP Integral Computing Module                       
 Release: version 1.0, May 2013, Q-Chem Inc. Pittsburgh 
 -------------------------------------------------------
 Integral Job Info:
 Integral job number is                      11
 Integral operator is                         1
 short-range coefficients              15000000
 long-range coefficients              100000000
 Omega coefficients                         300
 if combine SR and LR in K                    1
 Integral screening is                        0
 Integral computing path is                   2
 max size of driver memory is            800000
 size of driver memory is                776718
 size of scratch memory is             29504930
 max col of scratch BK array              10000
 max len of scratch array in speh3          662
 max len of scratch index in speh4           32
 max int batch size is                      520
 min int batch size is                       52
 fixed nKL is                                30
 max L of basis functions is                  3
 order of int derivative is                   0
 number of shells is                         41
 number of basis is                         139
 number of cartesian basis is               139
 number of contracted shell pairs           861
 number of primitive shell pairs           4503
 maxK2 (contraction) of shell pair          169
 max number of K2 of shell pair               1
 max number of CS2 of shell pair            121
 max number of PS2 of shell pair           1014
 mem total for path MDJ                  544630
 -------------------------------------------------------
 Smallest overlap matrix eigenvalue = 2.13E-04

 Scale SEOQF with 1.000000e-01/1.000000e-01/1.000000e-01

 Standard Electronic Orientation quadrupole field applied
 Guess MOs from SCF MO coefficient file
 Reading MOs from coefficient file
 Reading MOs from coefficient file
 Long-range K will be added via erf
 Coulomb attenuation parameter = 0.3 bohr**(-1)
 A restricted hybrid HF-DFT SCF calculation will be
 performed using Geometric Direct Minimization
 Exchange:     0.1500 Hartree-Fock + 1.0000 wB97M-V + LR-HF
 Correlation:  1.0000 wB97M-V
 Using Euler-Maclaurin-Lebedev (99,590) quadrature formula
 Nonlocal Correlation:  VV10 with C = 0.0100 and b = 6.00 and scale = 1.00000
 Grid used for NLC:  SG-1 standard quadrature
 SCF converges when RMS gradient is below 1.0E-08
Using Q-Chem read-in guess as SCF_GUESS READ specified.

 using 16 threads for integral computing
 -------------------------------------------------------
 OpenMP Integral computing Module                
 Release: version 1.0, May 2013, Q-Chem Inc. Pittsburgh 
 -------------------------------------------------------
 using 16 threads for integral computing
 -------------------------------------------------------
 OpenMP Integral computing Module                
 Release: version 1.0, May 2013, Q-Chem Inc. Pittsburgh 
 -------------------------------------------------------
TIMEINFO->: J/JK contribution 16.33 sec.
 -------------------------------------------------------
 OpenMP BLAS3 based DFT computing Module                
 Release: version 1.0, May 2013, Q-Chem Inc. Pittsburgh 
 -------------------------------------------------------
 -------------------------------------------------------
 OpenMP BLAS3 based DFT computing Module                
 Release: version 1.0, May 2013, Q-Chem Inc. Pittsburgh 
 -------------------------------------------------------
 -------------------------------------------------------
 OpenMP BLAS3 based DFT computing Module                
 Release: version 1.0, May 2013, Q-Chem Inc. Pittsburgh 
 -------------------------------------------------------
 ---------------------------------------
  Cycle       Energy        RMS Gradient
 ---------------------------------------
    1    -342.4869151484      1.26E-09 Normal BFGS step
TIMEINFO->: J/JK contribution 16.32 sec.
   GDM::WARNING energy changes are now smaller than effective accuracy.
   GDM::        calculation will continue, but THRESH should be increased
   GDM::        or SCF_CONVERGENCE decreased.
   GDM::        effective_thresh =   9.000000000000000E-011
 Nonlocal correlation =     0.0230751977
    2    -342.4869151484      3.29E-10 Convergence criterion met
 ---------------------------------------
 wB97M-V orbitals are now ready for the wB97M(2) calculation.
 wB97M(2) energy = Exch (0.62194 SRHF + 1.0 LRHF + wB97M(2)_EXCH) + 
               Corr (wB97M(2)_CORR + 0.34096 MP2 + 0.65904 VV10(b=10))
 SCF time:  CPU 99.47 s  wall 6.29 s
 SCF   energy in the final basis set = -342.42510803
 Total energy in the final basis set = -342.42510803
 
 Components of the MP2 correlation energy:
        aaaa  correlation energy =        -0.0242938200 au
        abab  correlation energy =        -0.1343677291 au
        bbbb  correlation energy =        -0.0194866123 au
        non-Brillouin singles    =        -0.0005882226 au

 Total  MP2   correlation energy =                    -0.17873638 au
        MP2         total energy =                  -342.60384442 au
 
 --------------------------------------------------------------
 
                    Orbital Energies (a.u.)
 --------------------------------------------------------------
 
 Alpha MOs
 -- Occupied --
-77.382  -6.734  -4.844  -4.852  -4.842  -0.749  -0.483  -0.406
 -0.331
 -- Virtual --
  0.013   0.040   0.060   0.064   0.065   0.114   0.126   0.141
  0.163   0.168   0.171   0.244   0.264   0.278   0.283   0.299
  0.301   0.305   0.315   0.449   0.453   0.460   0.477   0.469
  0.477   0.489   0.584   0.603   0.615   0.659   0.673   0.685
  0.688   0.689   0.744   0.850   0.867   0.915   0.932   0.932
  0.934   0.988   0.994   1.023   1.083   1.081   1.138   1.369
  1.368   1.371   1.376   1.398   1.400   1.411   1.464   1.473
  1.653   1.678   1.680   1.765   1.862   1.902   1.979   2.078
  2.089   2.175   2.273   2.495   2.549   3.082   3.204   3.649
  3.683   3.706   3.771   3.865   3.874   3.921   4.050   4.117
  4.136   4.131   4.166   4.256   4.273   4.807   4.840   7.109
  7.110   7.177   7.521   7.962   9.672   9.926  10.019  12.102
 26.536  26.537  26.540  26.541  26.546  26.557  26.558  32.825
 32.825  32.853  33.021  33.252  41.188  41.467  41.567  70.907
 
 Beta MOs
 -- Occupied --
-77.378  -6.730  -4.842  -4.837  -4.839  -0.720  -0.474  -0.390
 -- Virtual --
 -0.042   0.012   0.039   0.059   0.065   0.064   0.118   0.131
  0.144   0.163   0.169   0.173   0.244   0.264   0.277   0.285
  0.295   0.300   0.312   0.316   0.460   0.459   0.472   0.474
  0.497   0.503   0.499   0.583   0.613   0.617   0.661   0.675
  0.693   0.694   0.694   0.753   0.859   0.872   0.915   0.932
  0.933   0.939   0.992   0.998   1.024   1.093   1.100   1.138
  1.377   1.386   1.396   1.397   1.437   1.439   1.419   1.473
  1.484   1.695   1.713   1.724   1.835   1.887   1.917   2.016
  2.094   2.110   2.243   2.296   2.517   2.592   3.098   3.228
  3.659   3.699   3.719   3.784   3.883   3.917   3.960   4.077
  4.133   4.157   4.171   4.183   4.294   4.280   4.829   4.866
  7.119   7.120   7.181   7.544   7.976   9.711   9.938  10.034
 12.129  26.541  26.543  26.546  26.547  26.550  26.559  26.560
 32.837  32.837  32.856  33.037  33.256  41.205  41.471  41.572
 70.919
 --------------------------------------------------------------
 
          Ground-State Mulliken Net Atomic Charges

     Atom                 Charge (a.u.)
  ----------------------------------------
      1 P                    -0.360871
      2 H                     0.180436
      3 H                     0.180436
  ----------------------------------------
  Sum of atomic charges =     0.000000

 -----------------------------------------------------------------
                    Cartesian Multipole Moments
 -----------------------------------------------------------------
    Charge (ESU x 10^10)
                 0.0000
    Dipole Moment (Debye)
         X       0.0000      Y       0.0000      Z       0.4880
       Tot       0.4880
    Quadrupole Moments (Debye-Ang)
        XX     -15.4097     XY       0.0000     YY     -14.2154
        XZ      -0.0000     YZ      -0.0000     ZZ     -15.5387
    Octopole Moments (Debye-Ang^2)
       XXX       0.0000    XXY      -0.0000    XYY       0.0000
       YYY       0.0000    XXZ      -1.6043    XYZ       0.0000
       YYZ      -1.4994    XZZ       0.0000    YZZ       0.0000
       ZZZ      -4.8682
    Hexadecapole Moments (Debye-Ang^3)
      XXXX     -25.2390   XXXY       0.0000   XXYY      -9.8022
      XYYY       0.0000   YYYY     -31.8659   XXXZ      -0.0000
      XXYZ      -0.0000   XYYZ      -0.0000   YYYZ       0.0000
      XXZZ     -10.4508   XYZZ       0.0000   YYZZ     -10.5233
      XZZZ      -0.0000   YZZZ      -0.0000   ZZZZ     -36.2913
 -----------------------------------------------------------------
Archival summary:
1\1\n0045.mhg0\SP\ROProcedureUnspecified\BasisUnspecified\12(2)\yhljason\FriNov612:31:422020FriNov612:31:422020\0\\#,ROProcedureUnspecified,BasisUnspecified,\\0,2\P\H,1,1.42798\H,1,1.42798,2,91.5037\\\@

 Total job time:  24.49s(wall), 388.83s(cpu) 
 Fri Nov  6 12:31:42 2020

        *************************************************************
        *                                                           *
        *  Thank you very much for using Q-Chem.  Have a nice day.  *
        *                                                           *
        *************************************************************


 
User input: 3 of 6 
 
Q-Chem Developer Version!
                  Welcome to Q-Chem
     A Quantum Leap Into The Future Of Chemistry


 Q-Chem 5.1, Q-Chem, Inc., Pleasanton, CA (2018)

 Yihan Shao,  Zhengting Gan,  E. Epifanovsky,  A. T. B. Gilbert,  M. Wormit,  
 J. Kussmann,  A. W. Lange,  A. Behn,  Jia Deng,  Xintian Feng,  D. Ghosh,  
 M. Goldey,  P. R. Horn,  L. D. Jacobson,  I. Kaliman,  T. Kus,  A. Landau,  
 Jie Liu,  E. I. Proynov,  R. M. Richard,  R. P. Steele,  E. J. Sundstrom,  
 H. L. Woodcock III,  P. M. Zimmerman,  D. Zuev,  B. Albrecht,  E. Alguire,  
 S. A. Baeppler,  D. Barton,  Z. Benda,  Y. A. Bernard,  E. J. Berquist,  
 K. B. Bravaya,  H. Burton,  D. Casanova,  Chun-Min Chang,  Yunqing Chen,  
 A. Chien,  K. D. Closser,  M. P. Coons,  S. Coriani,  S. Dasgupta,  
 A. L. Dempwolff,  M. Diedenhofen,  Hainam Do,  R. G. Edgar,  Po-Tung Fang,  
 S. Faraji,  S. Fatehi,  Qingguo Feng,  K. D. Fenk,  J. Fosso-Tande,  
 Qinghui Ge,  A. Ghysels,  G. Gidofalvi,  J. Gomes,  J. Gonthier,  A. Gunina,  
 D. Hait,  M. W. D. Hanson-Heine,  P. H. P. Harbach,  A. W. Hauser,  
 J. E. Herr,  E. G. Hohenstein,  Z. C. Holden,  Kerwin Hui,  B. C. Huynh,  
 T.-C. Jagau,  Hyunjun Ji,  B. Kaduk,  K. Khistyaev,  Jaehoon Kim,  
 P. Klunzinger,  K. Koh,  D. Kosenkov,  L. Koulias,  T. Kowalczyk,  
 C. M. Krauter,  A. Kunitsa,  Ka Un Lao,  A. Laurent,  K. V. Lawler,  
 Joonho Lee,  D. Lefrancois,  S. Lehtola,  D. S. Levine,  Yi-Pei Li,  
 You-Sheng Lin,  Fenglai Liu,  E. Livshits,  A. Luenser,  P. Manohar,  
 E. Mansoor,  S. F. Manzer,  Shan-Ping Mao,  Yuezhi Mao,  N. Mardirossian,  
 A. V. Marenich,  T. Markovich,  L. A. Martinez-Martinez,  S. A. Maurer,  
 N. J. Mayhall,  S. C. McKenzie,  J.-M. Mewes,  A. F. Morrison,  
 J. W. Mullinax,  K. Nanda,  T. S. Nguyen-Beck,  R. Olivares-Amaya,  
 J. A. Parkhill,  T. M. Perrine,  F. Plasser,  P. Pokhilko,  S. Prager,  
 A. Prociuk,  E. Ramos,  D. R. Rehn,  F. Rob,  M. Schneider,  N. Sergueev,  
 S. M. Sharada,  S. Sharma,  D. W. Small,  T. Stauch,  T. Stein,  
 Yu-Chuan Su,  A. J. W. Thom,  A. Tkatchenko,  T. Tsuchimochi,  N. M. Tubman,  
 L. Vogt,  M. L. Vidal,  O. Vydrov,  M. A. Watson,  J. Wenzel,  
 M. de Wergifosse,  T. A. Wesolowski,  A. White,  J. Witte,  A. Yamada,  
 Jun Yang,  K. Yao,  S. Yeganeh,  S. R. Yost,  Zhi-Qiang You,  A. Zech,  
 Igor Ying Zhang,  Xing Zhang,  Yan Zhao,  Ying Zhu,  B. R. Brooks,  
 G. K. L. Chan,  C. J. Cramer,  M. S. Gordon,  W. J. Hehre,  A. Klamt,  
 M. W. Schmidt,  C. D. Sherrill,  D. G. Truhlar,  A. Aspuru-Guzik,  R. Baer,  
 A. T. Bell,  N. A. Besley,  Jeng-Da Chai,  A. E. DePrince, III,  
 R. A. DiStasio Jr.,  A. Dreuw,  B. D. Dunietz,  T. R. Furlani,  
 Chao-Ping Hsu,  Yousung Jung,  Jing Kong,  D. S. Lambrecht,  WanZhen Liang,  
 C. Ochsenfeld,  V. A. Rassolov,  L. V. Slipchenko,  J. E. Subotnik,  
 T. Van Voorhis,  J. M. Herbert,  A. I. Krylov,  P. M. W. Gill,  M. Head-Gordon

 Contributors to earlier versions of Q-Chem not listed above: 
 R. D. Adamson,  B. Austin,  J. Baker,  G. J. O. Beran,  K. Brandhorst,  
 S. T. Brown,  E. F. C. Byrd,  A. K. Chakraborty,  C.-L. Cheng,  
 Siu Hung Chien,  D. M. Chipman,  D. L. Crittenden,  H. Dachsel,  
 R. J. Doerksen,  A. D. Dutoi,  L. Fusti-Molnar,  W. A. Goddard III,  
 A. Golubeva-Zadorozhnaya,  S. R. Gwaltney,  G. Hawkins,  A. Heyden,  
 S. Hirata,  G. Kedziora,  F. J. Keil,  C. Kelley,  Jihan Kim,  R. A. King,  
 R. Z. Khaliullin,  P. P. Korambath,  W. Kurlancheek,  A. M. Lee,  M. S. Lee,  
 S. V. Levchenko,  Ching Yeh Lin,  D. Liotard,  R. C. Lochan,  I. Lotan,  
 P. E. Maslen,  N. Nair,  D. P. O'Neill,  D. Neuhauser,  E. Neuscamman,  
 C. M. Oana,  R. Olson,  B. Peters,  R. Peverati,  P. A. Pieniazek,  
 Y. M. Rhee,  J. Ritchie,  M. A. Rohrdanz,  E. Rosta,  N. J. Russ,  
 H. F. Schaefer III,  N. E. Schultz,  N. Shenvi,  A. C. Simmonett,  A. Sodt,  
 D. Stuck,  K. S. Thanthiriwatte,  V. Vanovschi,  Tao Wang,  A. Warshel,  
 C. F. Williams,  Q. Wu,  X. Xu,  W. Zhang

 Please cite Q-Chem as follows:
 Y. Shao et al., Mol. Phys. 113, 184-215 (2015)
 DOI: 10.1080/00268976.2014.952696

 Q-Chem 5.1.1 for Intel X86 EM64T Linux

 Parts of Q-Chem use Armadillo 8.300.2 (Tropical Shenanigans).
 http://arma.sourceforge.net/

 Q-Chem begins on Fri Nov  6 12:31:42 2020  

Host: n0045.mhg0
0

     Scratch files written to /local/scratch/users/yhljason/PH2_wB97M2_aug-cc-pcVTZ.inp20201106122540//
The previous job contains 0 fragments, simply inherited here
Input Ideriv = 1
Curr. Ideriv = -1
Max.  Ideriv = 1

Checking the input file for inconsistencies... 	...done.

--------------------------------------------------------------
User input:
--------------------------------------------------------------
$molecule
read
$end

$rem

jobtype sp
method wb97m-v
xc_grid 000099000590
basis aug-cc-pcVTZ
max_scf_cycles 200
thresh 14
scf_convergence 8
mem_total 128000
cc_memory 96000
cc_backend xm
mem_static 1500
symmetry false
sym_ignore true
scf_guess read
unrestricted false
scf_algorithm gdm
n_frozen_core 0
gen_scfman true
$end

$multipole_field
Z 0.0001
$end



--------------------------------------------------------------
 ----------------------------------------------------------------
             Standard Nuclear Orientation (Angstroms)
    I     Atom           X                Y                Z
 ----------------------------------------------------------------
    1      P       0.0000000000     0.0000000000     0.0000000000
    2      H       0.0000000000     1.0229000000     0.9964000000
    3      H       0.0000000000    -1.0229000000     0.9964000000
 ----------------------------------------------------------------
 Nuclear Repulsion Energy =    11.3759605773 hartrees
 There are        9 alpha and        8 beta electrons
 Requested basis set is aug-cc-pCVTZ
 There are 41 shells and 121 basis functions

 Total QAlloc Memory Limit 128000 MB
 Mega-Array Size      1467 MB
 MEM_STATIC part      1500 MB

                       Distance Matrix (Angstroms)
             P (  1)   H (  2)
   H (  2)  1.427984
   H (  3)  1.427984  2.045800
 
 Applying Cartesian multipole field
    Component          Value
    ---------          -----
     (0,0,1)        1.00000E-04
 Nucleus-field energy     =     0.0003765846 hartrees
 A cutoff of  1.0D-14 yielded    861 shell pairs
 There are      7573 function pairs (     10039 Cartesian)
 
 -------------------------------------------------------
 OpenMP Integral Computing Module                       
 Release: version 1.0, May 2013, Q-Chem Inc. Pittsburgh 
 -------------------------------------------------------
 Integral Job Info:
 Integral job number is                      11
 Integral operator is                         1
 short-range coefficients              15000000
 long-range coefficients              100000000
 Omega coefficients                         300
 if combine SR and LR in K                    1
 Integral screening is                        0
 Integral computing path is                   2
 max size of driver memory is            800000
 size of driver memory is                776718
 size of scratch memory is             29504930
 max col of scratch BK array              10000
 max len of scratch array in speh3          662
 max len of scratch index in speh4           32
 max int batch size is                      520
 min int batch size is                       52
 fixed nKL is                                30
 max L of basis functions is                  3
 order of int derivative is                   0
 number of shells is                         41
 number of basis is                         139
 number of cartesian basis is               139
 number of contracted shell pairs           861
 number of primitive shell pairs           4503
 maxK2 (contraction) of shell pair          169
 max number of K2 of shell pair               1
 max number of CS2 of shell pair            121
 max number of PS2 of shell pair           1014
 mem total for path MDJ                  544630
 -------------------------------------------------------
 Smallest overlap matrix eigenvalue = 2.13E-04
 Guess MOs from SCF MO coefficient file

 -----------------------------------------------------------------------
  General SCF calculation program by
  Eric Jon Sundstrom, Paul Horn, Yuezhi Mao, Dmitri Zuev, Alec White,
  David Stuck, Shaama M.S., Shane Yost, Joonho Lee, David Small,
  Daniel Levine, Susi Lehtola, Hugh Burton, Evgeny Epifanovsky
 -----------------------------------------------------------------------
 Exchange:     0.1500 Hartree-Fock + 1.0000 wB97M-V + LR-HF
 Correlation:  1.0000 wB97M-V
 Using Euler-Maclaurin-Lebedev (99,590) quadrature formula
 Nonlocal Correlation:  VV10 with C = 0.0100 and b = 6.00 and scale = 1.00000
 Grid used for NLC:  SG-1 standard quadrature
 using 16 threads for integral computing
 -------------------------------------------------------
 OpenMP Integral computing Module                
 Release: version 1.0, May 2013, Q-Chem Inc. Pittsburgh 
 -------------------------------------------------------
 using 16 threads for integral computing
 -------------------------------------------------------
 OpenMP Integral computing Module                
 Release: version 1.0, May 2013, Q-Chem Inc. Pittsburgh 
 -------------------------------------------------------
 -------------------------------------------------------
 OpenMP BLAS3 based DFT computing Module                
 Release: version 1.0, May 2013, Q-Chem Inc. Pittsburgh 
 -------------------------------------------------------
 -------------------------------------------------------
 OpenMP BLAS3 based DFT computing Module                
 Release: version 1.0, May 2013, Q-Chem Inc. Pittsburgh 
 -------------------------------------------------------
 -------------------------------------------------------
 OpenMP BLAS3 based DFT computing Module                
 Release: version 1.0, May 2013, Q-Chem Inc. Pittsburgh 
 -------------------------------------------------------
 Nonlocal correlation = 0.071773886198
 A restricted open-shell SCF calculation will be
 performed using GDM
 SCF converges when RMS gradient is below 1.0e-08
 ---------------------------------------
  Cycle       Energy        RMS Gradient
 ---------------------------------------
 Nonlocal correlation = 7.177401586251e-02
    1    -342.4868959482      2.69e-04   Normal BFGS step
 Nonlocal correlation = 7.177401690814e-02
    2    -342.4868960907      7.18e-05   Normal BFGS step
 Nonlocal correlation = 7.177400079223e-02
    3    -342.4868961042      1.14e-05   Normal BFGS step
 Nonlocal correlation = 7.177400489686e-02
    4    -342.4868961047      2.39e-06   Normal BFGS step
 Nonlocal correlation = 7.177400477039e-02
    5    -342.4868961048      6.75e-07   Normal BFGS step
 Nonlocal correlation = 7.177400457235e-02
    6    -342.4868961048      1.35e-07   Normal BFGS step
 Nonlocal correlation = 7.177400454726e-02
    7    -342.4868961048      3.39e-08   Normal BFGS step
 Nonlocal correlation = 7.177400454420e-02
    8    -342.4868961048      1.26e-08   Normal BFGS step
 Nonlocal correlation = 7.177400454398e-02
    9    -342.4868961048      1.57e-09  Convergence criterion met
The disked orbital energies are calculated using alpha and beta Focks
 ---------------------------------------
 SCF time:   CPU 334.18s  wall 21.00s 
<S^2> =          0.750000000
 SCF   energy in the final basis set =     -342.4868961048
 Total energy in the final basis set =     -342.4868961048
 
 --------------------------------------------------------------
 
                    Orbital Energies (a.u.)
 --------------------------------------------------------------
 
 Alpha MOs
 -- Occupied --
-77.382  -6.734  -4.852  -4.844  -4.842  -0.749  -0.483  -0.406
 -0.331
 -- Virtual --
  0.013   0.040   0.060   0.066   0.064   0.116   0.126   0.142
  0.164   0.169   0.172   0.244   0.264   0.278   0.283   0.299
  0.301   0.305   0.315   0.453   0.454   0.459   0.477   0.468
  0.485   0.475   0.584   0.602   0.615   0.659   0.673   0.685
  0.688   0.689   0.744   0.851   0.867   0.915   0.932   0.932
  0.934   0.988   0.994   1.023   1.083   1.081   1.138   1.369
  1.368   1.371   1.377   1.409   1.398   1.400   1.464   1.472
  1.654   1.677   1.680   1.765   1.861   1.901   1.979   2.078
  2.089   2.174   2.273   2.495   2.549   3.082   3.204   3.649
  3.683   3.706   3.771   3.865   3.874   3.922   4.050   4.116
  4.135   4.131   4.166   4.273   4.255   4.807   4.840   7.109
  7.110   7.177   7.521   7.962   9.671   9.926  10.019  12.102
 26.536  26.537  26.540  26.541  26.546  26.556  26.557  32.825
 32.825  32.853  33.021  33.252  41.188  41.467  41.567  70.907
 
 Beta MOs
 -- Occupied --
-77.378  -6.730  -4.837  -4.842  -4.839  -0.720  -0.474  -0.390
 -- Virtual --
 -0.042   0.011   0.039   0.059   0.063   0.065   0.117   0.131
  0.144   0.163   0.168   0.173   0.244   0.264   0.277   0.284
  0.295   0.300   0.312   0.315   0.457   0.458   0.472   0.474
  0.498   0.501   0.504   0.582   0.613   0.617   0.661   0.675
  0.692   0.694   0.694   0.753   0.858   0.872   0.915   0.931
  0.933   0.939   0.992   0.998   1.024   1.092   1.100   1.138
  1.377   1.385   1.396   1.396   1.420   1.438   1.439   1.473
  1.484   1.695   1.713   1.723   1.835   1.888   1.917   2.016
  2.094   2.110   2.243   2.296   2.517   2.592   3.098   3.228
  3.659   3.699   3.719   3.783   3.883   3.917   3.960   4.076
  4.133   4.158   4.171   4.182   4.280   4.294   4.829   4.866
  7.119   7.120   7.181   7.544   7.976   9.711   9.938  10.034
 12.129  26.541  26.543  26.546  26.547  26.550  26.559  26.560
 32.837  32.837  32.856  33.037  33.256  41.205  41.471  41.572
 70.919
 --------------------------------------------------------------
 
          Ground-State Mulliken Net Atomic Charges

     Atom                 Charge (a.u.)
  ----------------------------------------
      1 P                    -0.360381
      2 H                     0.180191
      3 H                     0.180191
  ----------------------------------------
  Sum of atomic charges =    -0.000000

 -----------------------------------------------------------------
                    Cartesian Multipole Moments
 -----------------------------------------------------------------
    Charge (ESU x 10^10)
                -0.0000
    Dipole Moment (Debye)
         X      -0.0000      Y       0.0000      Z       0.4801
       Tot       0.4801
    Quadrupole Moments (Debye-Ang)
        XX     -15.4091     XY       0.0000     YY     -14.2168
        XZ       0.0000     YZ      -0.0000     ZZ     -15.5414
    Octopole Moments (Debye-Ang^2)
       XXX      -0.0000    XXY       0.0000    XYY      -0.0000
       YYY       0.0000    XXZ      -1.6111    XYZ       0.0000
       YYZ      -1.5085    XZZ      -0.0000    YZZ      -0.0000
       ZZZ      -4.8929
    Hexadecapole Moments (Debye-Ang^3)
      XXXX     -25.2357   XXXY       0.0000   XXYY      -9.8022
      XYYY       0.0000   YYYY     -31.8715   XXXZ       0.0000
      XXYZ       0.0000   XYYZ       0.0000   YYYZ       0.0000
      XXZZ     -10.4512   XYZZ       0.0000   YYZZ     -10.5299
      XZZZ       0.0000   YZZZ       0.0000   ZZZZ     -36.3049
 -----------------------------------------------------------------
Archival summary:
1\1\n0045.mhg0\SP\ROProcedureUnspecified\BasisUnspecified\12(2)\yhljason\FriNov612:32:042020FriNov612:32:042020\0\\#,ROProcedureUnspecified,BasisUnspecified,\\0,2\P\H,1,1.42798\H,1,1.42798,2,91.5037\\\@

 Total job time:  21.96s(wall), 342.87s(cpu) 
 Fri Nov  6 12:32:04 2020

        *************************************************************
        *                                                           *
        *  Thank you very much for using Q-Chem.  Have a nice day.  *
        *                                                           *
        *************************************************************


 
User input: 4 of 6 
 
Q-Chem Developer Version!
                  Welcome to Q-Chem
     A Quantum Leap Into The Future Of Chemistry


 Q-Chem 5.1, Q-Chem, Inc., Pleasanton, CA (2018)

 Yihan Shao,  Zhengting Gan,  E. Epifanovsky,  A. T. B. Gilbert,  M. Wormit,  
 J. Kussmann,  A. W. Lange,  A. Behn,  Jia Deng,  Xintian Feng,  D. Ghosh,  
 M. Goldey,  P. R. Horn,  L. D. Jacobson,  I. Kaliman,  T. Kus,  A. Landau,  
 Jie Liu,  E. I. Proynov,  R. M. Richard,  R. P. Steele,  E. J. Sundstrom,  
 H. L. Woodcock III,  P. M. Zimmerman,  D. Zuev,  B. Albrecht,  E. Alguire,  
 S. A. Baeppler,  D. Barton,  Z. Benda,  Y. A. Bernard,  E. J. Berquist,  
 K. B. Bravaya,  H. Burton,  D. Casanova,  Chun-Min Chang,  Yunqing Chen,  
 A. Chien,  K. D. Closser,  M. P. Coons,  S. Coriani,  S. Dasgupta,  
 A. L. Dempwolff,  M. Diedenhofen,  Hainam Do,  R. G. Edgar,  Po-Tung Fang,  
 S. Faraji,  S. Fatehi,  Qingguo Feng,  K. D. Fenk,  J. Fosso-Tande,  
 Qinghui Ge,  A. Ghysels,  G. Gidofalvi,  J. Gomes,  J. Gonthier,  A. Gunina,  
 D. Hait,  M. W. D. Hanson-Heine,  P. H. P. Harbach,  A. W. Hauser,  
 J. E. Herr,  E. G. Hohenstein,  Z. C. Holden,  Kerwin Hui,  B. C. Huynh,  
 T.-C. Jagau,  Hyunjun Ji,  B. Kaduk,  K. Khistyaev,  Jaehoon Kim,  
 P. Klunzinger,  K. Koh,  D. Kosenkov,  L. Koulias,  T. Kowalczyk,  
 C. M. Krauter,  A. Kunitsa,  Ka Un Lao,  A. Laurent,  K. V. Lawler,  
 Joonho Lee,  D. Lefrancois,  S. Lehtola,  D. S. Levine,  Yi-Pei Li,  
 You-Sheng Lin,  Fenglai Liu,  E. Livshits,  A. Luenser,  P. Manohar,  
 E. Mansoor,  S. F. Manzer,  Shan-Ping Mao,  Yuezhi Mao,  N. Mardirossian,  
 A. V. Marenich,  T. Markovich,  L. A. Martinez-Martinez,  S. A. Maurer,  
 N. J. Mayhall,  S. C. McKenzie,  J.-M. Mewes,  A. F. Morrison,  
 J. W. Mullinax,  K. Nanda,  T. S. Nguyen-Beck,  R. Olivares-Amaya,  
 J. A. Parkhill,  T. M. Perrine,  F. Plasser,  P. Pokhilko,  S. Prager,  
 A. Prociuk,  E. Ramos,  D. R. Rehn,  F. Rob,  M. Schneider,  N. Sergueev,  
 S. M. Sharada,  S. Sharma,  D. W. Small,  T. Stauch,  T. Stein,  
 Yu-Chuan Su,  A. J. W. Thom,  A. Tkatchenko,  T. Tsuchimochi,  N. M. Tubman,  
 L. Vogt,  M. L. Vidal,  O. Vydrov,  M. A. Watson,  J. Wenzel,  
 M. de Wergifosse,  T. A. Wesolowski,  A. White,  J. Witte,  A. Yamada,  
 Jun Yang,  K. Yao,  S. Yeganeh,  S. R. Yost,  Zhi-Qiang You,  A. Zech,  
 Igor Ying Zhang,  Xing Zhang,  Yan Zhao,  Ying Zhu,  B. R. Brooks,  
 G. K. L. Chan,  C. J. Cramer,  M. S. Gordon,  W. J. Hehre,  A. Klamt,  
 M. W. Schmidt,  C. D. Sherrill,  D. G. Truhlar,  A. Aspuru-Guzik,  R. Baer,  
 A. T. Bell,  N. A. Besley,  Jeng-Da Chai,  A. E. DePrince, III,  
 R. A. DiStasio Jr.,  A. Dreuw,  B. D. Dunietz,  T. R. Furlani,  
 Chao-Ping Hsu,  Yousung Jung,  Jing Kong,  D. S. Lambrecht,  WanZhen Liang,  
 C. Ochsenfeld,  V. A. Rassolov,  L. V. Slipchenko,  J. E. Subotnik,  
 T. Van Voorhis,  J. M. Herbert,  A. I. Krylov,  P. M. W. Gill,  M. Head-Gordon

 Contributors to earlier versions of Q-Chem not listed above: 
 R. D. Adamson,  B. Austin,  J. Baker,  G. J. O. Beran,  K. Brandhorst,  
 S. T. Brown,  E. F. C. Byrd,  A. K. Chakraborty,  C.-L. Cheng,  
 Siu Hung Chien,  D. M. Chipman,  D. L. Crittenden,  H. Dachsel,  
 R. J. Doerksen,  A. D. Dutoi,  L. Fusti-Molnar,  W. A. Goddard III,  
 A. Golubeva-Zadorozhnaya,  S. R. Gwaltney,  G. Hawkins,  A. Heyden,  
 S. Hirata,  G. Kedziora,  F. J. Keil,  C. Kelley,  Jihan Kim,  R. A. King,  
 R. Z. Khaliullin,  P. P. Korambath,  W. Kurlancheek,  A. M. Lee,  M. S. Lee,  
 S. V. Levchenko,  Ching Yeh Lin,  D. Liotard,  R. C. Lochan,  I. Lotan,  
 P. E. Maslen,  N. Nair,  D. P. O'Neill,  D. Neuhauser,  E. Neuscamman,  
 C. M. Oana,  R. Olson,  B. Peters,  R. Peverati,  P. A. Pieniazek,  
 Y. M. Rhee,  J. Ritchie,  M. A. Rohrdanz,  E. Rosta,  N. J. Russ,  
 H. F. Schaefer III,  N. E. Schultz,  N. Shenvi,  A. C. Simmonett,  A. Sodt,  
 D. Stuck,  K. S. Thanthiriwatte,  V. Vanovschi,  Tao Wang,  A. Warshel,  
 C. F. Williams,  Q. Wu,  X. Xu,  W. Zhang

 Please cite Q-Chem as follows:
 Y. Shao et al., Mol. Phys. 113, 184-215 (2015)
 DOI: 10.1080/00268976.2014.952696

 Q-Chem 5.1.1 for Intel X86 EM64T Linux

 Parts of Q-Chem use Armadillo 8.300.2 (Tropical Shenanigans).
 http://arma.sourceforge.net/

 Q-Chem begins on Fri Nov  6 12:32:04 2020  

Host: n0045.mhg0
0

     Scratch files written to /local/scratch/users/yhljason/PH2_wB97M2_aug-cc-pcVTZ.inp20201106122540//
The previous job contains 0 fragments, simply inherited here
Input Ideriv = 0
Curr. Ideriv = -1
Max.  Ideriv = 0
Input Ideriv = 1
Curr. Ideriv = 0
Max.  Ideriv = 0

Checking the input file for inconsistencies... 	...done.

--------------------------------------------------------------
User input:
--------------------------------------------------------------
$molecule
read
$end

$rem

jobtype sp
exchange wb97m(2)
xc_grid 000099000590
basis aug-cc-pcVTZ
max_scf_cycles 200
thresh 14
scf_convergence 8
mem_total 128000
cc_memory 96000
cc_backend xm
mem_static 1500
symmetry false
sym_ignore true
scf_guess read
unrestricted false
scf_algorithm gdm
n_frozen_core 0
$end

$multipole_field
Z 0.0001
$end



--------------------------------------------------------------
 ----------------------------------------------------------------
             Standard Nuclear Orientation (Angstroms)
    I     Atom           X                Y                Z
 ----------------------------------------------------------------
    1      P       0.0000000000     0.0000000000     0.0000000000
    2      H       0.0000000000     1.0229000000     0.9964000000
    3      H       0.0000000000    -1.0229000000     0.9964000000
 ----------------------------------------------------------------
 Nuclear Repulsion Energy =    11.3759605773 hartrees
 There are        9 alpha and        8 beta electrons
 Requested basis set is aug-cc-pCVTZ
 There are 41 shells and 121 basis functions

 Total QAlloc Memory Limit 128000 MB
 Mega-Array Size      1467 MB
 MEM_STATIC part      1500 MB

                       Distance Matrix (Angstroms)
             P (  1)   H (  2)
   H (  2)  1.427984
   H (  3)  1.427984  2.045800
 
 Applying Cartesian multipole field
    Component          Value
    ---------          -----
     (0,0,1)        1.00000E-04
 Nucleus-field energy     =     0.0003765846 hartrees
 A cutoff of  1.0D-14 yielded    861 shell pairs
 There are      7573 function pairs (     10039 Cartesian)
 
 -------------------------------------------------------
 OpenMP Integral Computing Module                       
 Release: version 1.0, May 2013, Q-Chem Inc. Pittsburgh 
 -------------------------------------------------------
 Integral Job Info:
 Integral job number is                      11
 Integral operator is                         1
 short-range coefficients              15000000
 long-range coefficients              100000000
 Omega coefficients                         300
 if combine SR and LR in K                    1
 Integral screening is                        0
 Integral computing path is                   2
 max size of driver memory is            800000
 size of driver memory is                776718
 size of scratch memory is             29504930
 max col of scratch BK array              10000
 max len of scratch array in speh3          662
 max len of scratch index in speh4           32
 max int batch size is                      520
 min int batch size is                       52
 fixed nKL is                                30
 max L of basis functions is                  3
 order of int derivative is                   0
 number of shells is                         41
 number of basis is                         139
 number of cartesian basis is               139
 number of contracted shell pairs           861
 number of primitive shell pairs           4503
 maxK2 (contraction) of shell pair          169
 max number of K2 of shell pair               1
 max number of CS2 of shell pair            121
 max number of PS2 of shell pair           1014
 mem total for path MDJ                  544630
 -------------------------------------------------------
 Smallest overlap matrix eigenvalue = 2.13E-04
 Guess MOs from SCF MO coefficient file
 Reading MOs from coefficient file
 Reading MOs from coefficient file
 Long-range K will be added via erf
 Coulomb attenuation parameter = 0.3 bohr**(-1)
 A restricted hybrid HF-DFT SCF calculation will be
 performed using Geometric Direct Minimization
 Exchange:     0.1500 Hartree-Fock + 1.0000 wB97M-V + LR-HF
 Correlation:  1.0000 wB97M-V
 Using Euler-Maclaurin-Lebedev (99,590) quadrature formula
 Nonlocal Correlation:  VV10 with C = 0.0100 and b = 6.00 and scale = 1.00000
 Grid used for NLC:  SG-1 standard quadrature
 SCF converges when RMS gradient is below 1.0E-08
Using Q-Chem read-in guess as SCF_GUESS READ specified.

 using 16 threads for integral computing
 -------------------------------------------------------
 OpenMP Integral computing Module                
 Release: version 1.0, May 2013, Q-Chem Inc. Pittsburgh 
 -------------------------------------------------------
 using 16 threads for integral computing
 -------------------------------------------------------
 OpenMP Integral computing Module                
 Release: version 1.0, May 2013, Q-Chem Inc. Pittsburgh 
 -------------------------------------------------------
TIMEINFO->: J/JK contribution 16.12 sec.
 -------------------------------------------------------
 OpenMP BLAS3 based DFT computing Module                
 Release: version 1.0, May 2013, Q-Chem Inc. Pittsburgh 
 -------------------------------------------------------
 -------------------------------------------------------
 OpenMP BLAS3 based DFT computing Module                
 Release: version 1.0, May 2013, Q-Chem Inc. Pittsburgh 
 -------------------------------------------------------
 -------------------------------------------------------
 OpenMP BLAS3 based DFT computing Module                
 Release: version 1.0, May 2013, Q-Chem Inc. Pittsburgh 
 -------------------------------------------------------
 ---------------------------------------
  Cycle       Energy        RMS Gradient
 ---------------------------------------
    1    -342.4868961048      5.08E-10 Normal BFGS step
TIMEINFO->: J/JK contribution 16.19 sec.
   GDM::WARNING energy changes are now smaller than effective accuracy.
   GDM::        calculation will continue, but THRESH should be increased
   GDM::        or SCF_CONVERGENCE decreased.
   GDM::        effective_thresh =   9.000000000000000E-011
 Nonlocal correlation =     0.0230752234
    2    -342.4868961048      1.83E-10 Convergence criterion met
 ---------------------------------------
 wB97M-V orbitals are now ready for the wB97M(2) calculation.
 wB97M(2) energy = Exch (0.62194 SRHF + 1.0 LRHF + wB97M(2)_EXCH) + 
               Corr (wB97M(2)_CORR + 0.34096 MP2 + 0.65904 VV10(b=10))
 SCF time:  CPU 98.97 s  wall 6.25 s
 SCF   energy in the final basis set = -342.42508738
 Total energy in the final basis set = -342.42508738
 
 Components of the MP2 correlation energy:
        aaaa  correlation energy =        -0.0242939761 au
        abab  correlation energy =        -0.1343686781 au
        bbbb  correlation energy =        -0.0194866618 au
        non-Brillouin singles    =        -0.0005882292 au

 Total  MP2   correlation energy =                    -0.17873755 au
        MP2         total energy =                  -342.60382492 au
 
 --------------------------------------------------------------
 
                    Orbital Energies (a.u.)
 --------------------------------------------------------------
 
 Alpha MOs
 -- Occupied --
-77.382  -6.734  -4.844  -4.852  -4.842  -0.749  -0.483  -0.407
 -0.331
 -- Virtual --
  0.013   0.039   0.060   0.064   0.065   0.114   0.126   0.141
  0.163   0.168   0.171   0.244   0.264   0.278   0.283   0.299
  0.301   0.305   0.315   0.449   0.453   0.460   0.477   0.469
  0.477   0.489   0.584   0.603   0.614   0.659   0.673   0.685
  0.688   0.689   0.744   0.850   0.867   0.915   0.932   0.932
  0.934   0.988   0.994   1.023   1.083   1.081   1.138   1.369
  1.368   1.371   1.376   1.398   1.400   1.411   1.463   1.473
  1.653   1.678   1.680   1.765   1.862   1.902   1.979   2.078
  2.089   2.175   2.273   2.495   2.549   3.082   3.204   3.649
  3.683   3.706   3.771   3.865   3.874   3.921   4.050   4.117
  4.136   4.131   4.166   4.256   4.273   4.807   4.840   7.109
  7.110   7.177   7.521   7.962   9.672   9.926  10.019  12.102
 26.536  26.537  26.540  26.541  26.546  26.556  26.557  32.825
 32.825  32.853  33.021  33.252  41.188  41.467  41.567  70.907
 
 Beta MOs
 -- Occupied --
-77.378  -6.730  -4.842  -4.837  -4.839  -0.720  -0.474  -0.390
 -- Virtual --
 -0.042   0.011   0.039   0.059   0.065   0.064   0.117   0.131
  0.144   0.163   0.169   0.173   0.244   0.264   0.277   0.285
  0.295   0.300   0.312   0.315   0.460   0.459   0.472   0.474
  0.497   0.503   0.499   0.583   0.613   0.617   0.661   0.675
  0.693   0.694   0.694   0.753   0.859   0.872   0.915   0.931
  0.933   0.939   0.992   0.998   1.024   1.092   1.100   1.138
  1.377   1.386   1.396   1.396   1.437   1.439   1.419   1.473
  1.484   1.695   1.713   1.724   1.835   1.887   1.916   2.016
  2.094   2.110   2.243   2.296   2.517   2.592   3.098   3.228
  3.659   3.699   3.719   3.783   3.883   3.917   3.960   4.077
  4.133   4.157   4.171   4.182   4.294   4.280   4.829   4.866
  7.119   7.120   7.181   7.544   7.976   9.711   9.938  10.034
 12.129  26.541  26.543  26.546  26.547  26.550  26.559  26.560
 32.837  32.837  32.856  33.037  33.256  41.205  41.471  41.572
 70.919
 --------------------------------------------------------------
 
          Ground-State Mulliken Net Atomic Charges

     Atom                 Charge (a.u.)
  ----------------------------------------
      1 P                    -0.360381
      2 H                     0.180191
      3 H                     0.180191
  ----------------------------------------
  Sum of atomic charges =     0.000000

 -----------------------------------------------------------------
                    Cartesian Multipole Moments
 -----------------------------------------------------------------
    Charge (ESU x 10^10)
                 0.0000
    Dipole Moment (Debye)
         X      -0.0000      Y      -0.0000      Z       0.4801
       Tot       0.4801
    Quadrupole Moments (Debye-Ang)
        XX     -15.4091     XY      -0.0000     YY     -14.2168
        XZ      -0.0000     YZ      -0.0000     ZZ     -15.5414
    Octopole Moments (Debye-Ang^2)
       XXX      -0.0000    XXY      -0.0000    XYY       0.0000
       YYY      -0.0000    XXZ      -1.6111    XYZ       0.0000
       YYZ      -1.5085    XZZ       0.0000    YZZ       0.0000
       ZZZ      -4.8929
    Hexadecapole Moments (Debye-Ang^3)
      XXXX     -25.2357   XXXY       0.0000   XXYY      -9.8022
      XYYY       0.0000   YYYY     -31.8715   XXXZ      -0.0000
      XXYZ      -0.0000   XYYZ      -0.0000   YYYZ      -0.0000
      XXZZ     -10.4512   XYZZ       0.0000   YYZZ     -10.5299
      XZZZ      -0.0000   YZZZ      -0.0000   ZZZZ     -36.3049
 -----------------------------------------------------------------
Archival summary:
1\1\n0045.mhg0\SP\ROProcedureUnspecified\BasisUnspecified\12(2)\yhljason\FriNov612:32:292020FriNov612:32:292020\0\\#,ROProcedureUnspecified,BasisUnspecified,\\0,2\P\H,1,1.42798\H,1,1.42798,2,91.5037\\\@

 Total job time:  24.29s(wall), 384.53s(cpu) 
 Fri Nov  6 12:32:29 2020

        *************************************************************
        *                                                           *
        *  Thank you very much for using Q-Chem.  Have a nice day.  *
        *                                                           *
        *************************************************************


 
User input: 5 of 6 
 
Q-Chem Developer Version!
                  Welcome to Q-Chem
     A Quantum Leap Into The Future Of Chemistry


 Q-Chem 5.1, Q-Chem, Inc., Pleasanton, CA (2018)

 Yihan Shao,  Zhengting Gan,  E. Epifanovsky,  A. T. B. Gilbert,  M. Wormit,  
 J. Kussmann,  A. W. Lange,  A. Behn,  Jia Deng,  Xintian Feng,  D. Ghosh,  
 M. Goldey,  P. R. Horn,  L. D. Jacobson,  I. Kaliman,  T. Kus,  A. Landau,  
 Jie Liu,  E. I. Proynov,  R. M. Richard,  R. P. Steele,  E. J. Sundstrom,  
 H. L. Woodcock III,  P. M. Zimmerman,  D. Zuev,  B. Albrecht,  E. Alguire,  
 S. A. Baeppler,  D. Barton,  Z. Benda,  Y. A. Bernard,  E. J. Berquist,  
 K. B. Bravaya,  H. Burton,  D. Casanova,  Chun-Min Chang,  Yunqing Chen,  
 A. Chien,  K. D. Closser,  M. P. Coons,  S. Coriani,  S. Dasgupta,  
 A. L. Dempwolff,  M. Diedenhofen,  Hainam Do,  R. G. Edgar,  Po-Tung Fang,  
 S. Faraji,  S. Fatehi,  Qingguo Feng,  K. D. Fenk,  J. Fosso-Tande,  
 Qinghui Ge,  A. Ghysels,  G. Gidofalvi,  J. Gomes,  J. Gonthier,  A. Gunina,  
 D. Hait,  M. W. D. Hanson-Heine,  P. H. P. Harbach,  A. W. Hauser,  
 J. E. Herr,  E. G. Hohenstein,  Z. C. Holden,  Kerwin Hui,  B. C. Huynh,  
 T.-C. Jagau,  Hyunjun Ji,  B. Kaduk,  K. Khistyaev,  Jaehoon Kim,  
 P. Klunzinger,  K. Koh,  D. Kosenkov,  L. Koulias,  T. Kowalczyk,  
 C. M. Krauter,  A. Kunitsa,  Ka Un Lao,  A. Laurent,  K. V. Lawler,  
 Joonho Lee,  D. Lefrancois,  S. Lehtola,  D. S. Levine,  Yi-Pei Li,  
 You-Sheng Lin,  Fenglai Liu,  E. Livshits,  A. Luenser,  P. Manohar,  
 E. Mansoor,  S. F. Manzer,  Shan-Ping Mao,  Yuezhi Mao,  N. Mardirossian,  
 A. V. Marenich,  T. Markovich,  L. A. Martinez-Martinez,  S. A. Maurer,  
 N. J. Mayhall,  S. C. McKenzie,  J.-M. Mewes,  A. F. Morrison,  
 J. W. Mullinax,  K. Nanda,  T. S. Nguyen-Beck,  R. Olivares-Amaya,  
 J. A. Parkhill,  T. M. Perrine,  F. Plasser,  P. Pokhilko,  S. Prager,  
 A. Prociuk,  E. Ramos,  D. R. Rehn,  F. Rob,  M. Schneider,  N. Sergueev,  
 S. M. Sharada,  S. Sharma,  D. W. Small,  T. Stauch,  T. Stein,  
 Yu-Chuan Su,  A. J. W. Thom,  A. Tkatchenko,  T. Tsuchimochi,  N. M. Tubman,  
 L. Vogt,  M. L. Vidal,  O. Vydrov,  M. A. Watson,  J. Wenzel,  
 M. de Wergifosse,  T. A. Wesolowski,  A. White,  J. Witte,  A. Yamada,  
 Jun Yang,  K. Yao,  S. Yeganeh,  S. R. Yost,  Zhi-Qiang You,  A. Zech,  
 Igor Ying Zhang,  Xing Zhang,  Yan Zhao,  Ying Zhu,  B. R. Brooks,  
 G. K. L. Chan,  C. J. Cramer,  M. S. Gordon,  W. J. Hehre,  A. Klamt,  
 M. W. Schmidt,  C. D. Sherrill,  D. G. Truhlar,  A. Aspuru-Guzik,  R. Baer,  
 A. T. Bell,  N. A. Besley,  Jeng-Da Chai,  A. E. DePrince, III,  
 R. A. DiStasio Jr.,  A. Dreuw,  B. D. Dunietz,  T. R. Furlani,  
 Chao-Ping Hsu,  Yousung Jung,  Jing Kong,  D. S. Lambrecht,  WanZhen Liang,  
 C. Ochsenfeld,  V. A. Rassolov,  L. V. Slipchenko,  J. E. Subotnik,  
 T. Van Voorhis,  J. M. Herbert,  A. I. Krylov,  P. M. W. Gill,  M. Head-Gordon

 Contributors to earlier versions of Q-Chem not listed above: 
 R. D. Adamson,  B. Austin,  J. Baker,  G. J. O. Beran,  K. Brandhorst,  
 S. T. Brown,  E. F. C. Byrd,  A. K. Chakraborty,  C.-L. Cheng,  
 Siu Hung Chien,  D. M. Chipman,  D. L. Crittenden,  H. Dachsel,  
 R. J. Doerksen,  A. D. Dutoi,  L. Fusti-Molnar,  W. A. Goddard III,  
 A. Golubeva-Zadorozhnaya,  S. R. Gwaltney,  G. Hawkins,  A. Heyden,  
 S. Hirata,  G. Kedziora,  F. J. Keil,  C. Kelley,  Jihan Kim,  R. A. King,  
 R. Z. Khaliullin,  P. P. Korambath,  W. Kurlancheek,  A. M. Lee,  M. S. Lee,  
 S. V. Levchenko,  Ching Yeh Lin,  D. Liotard,  R. C. Lochan,  I. Lotan,  
 P. E. Maslen,  N. Nair,  D. P. O'Neill,  D. Neuhauser,  E. Neuscamman,  
 C. M. Oana,  R. Olson,  B. Peters,  R. Peverati,  P. A. Pieniazek,  
 Y. M. Rhee,  J. Ritchie,  M. A. Rohrdanz,  E. Rosta,  N. J. Russ,  
 H. F. Schaefer III,  N. E. Schultz,  N. Shenvi,  A. C. Simmonett,  A. Sodt,  
 D. Stuck,  K. S. Thanthiriwatte,  V. Vanovschi,  Tao Wang,  A. Warshel,  
 C. F. Williams,  Q. Wu,  X. Xu,  W. Zhang

 Please cite Q-Chem as follows:
 Y. Shao et al., Mol. Phys. 113, 184-215 (2015)
 DOI: 10.1080/00268976.2014.952696

 Q-Chem 5.1.1 for Intel X86 EM64T Linux

 Parts of Q-Chem use Armadillo 8.300.2 (Tropical Shenanigans).
 http://arma.sourceforge.net/

 Q-Chem begins on Fri Nov  6 12:32:29 2020  

Host: n0045.mhg0
0

     Scratch files written to /local/scratch/users/yhljason/PH2_wB97M2_aug-cc-pcVTZ.inp20201106122540//
The previous job contains 0 fragments, simply inherited here
Input Ideriv = 1
Curr. Ideriv = -1
Max.  Ideriv = 1

Checking the input file for inconsistencies... 	...done.

--------------------------------------------------------------
User input:
--------------------------------------------------------------
$molecule
read
$end

$rem

jobtype sp
method wb97m-v
xc_grid 000099000590
basis aug-cc-pcVTZ
max_scf_cycles 200
thresh 14
scf_convergence 8
mem_total 128000
cc_memory 96000
cc_backend xm
mem_static 1500
symmetry false
sym_ignore true
scf_guess read
unrestricted false
scf_algorithm gdm
n_frozen_core 0
gen_scfman true
$end

$multipole_field
Z -0.0001
$end



--------------------------------------------------------------
 ----------------------------------------------------------------
             Standard Nuclear Orientation (Angstroms)
    I     Atom           X                Y                Z
 ----------------------------------------------------------------
    1      P       0.0000000000     0.0000000000     0.0000000000
    2      H       0.0000000000     1.0229000000     0.9964000000
    3      H       0.0000000000    -1.0229000000     0.9964000000
 ----------------------------------------------------------------
 Nuclear Repulsion Energy =    11.3759605773 hartrees
 There are        9 alpha and        8 beta electrons
 Requested basis set is aug-cc-pCVTZ
 There are 41 shells and 121 basis functions

 Total QAlloc Memory Limit 128000 MB
 Mega-Array Size      1467 MB
 MEM_STATIC part      1500 MB

                       Distance Matrix (Angstroms)
             P (  1)   H (  2)
   H (  2)  1.427984
   H (  3)  1.427984  2.045800
 
 Applying Cartesian multipole field
    Component          Value
    ---------          -----
     (0,0,1)       -1.00000E-04
 Nucleus-field energy     =    -0.0003765846 hartrees
 A cutoff of  1.0D-14 yielded    861 shell pairs
 There are      7573 function pairs (     10039 Cartesian)
 
 -------------------------------------------------------
 OpenMP Integral Computing Module                       
 Release: version 1.0, May 2013, Q-Chem Inc. Pittsburgh 
 -------------------------------------------------------
 Integral Job Info:
 Integral job number is                      11
 Integral operator is                         1
 short-range coefficients              15000000
 long-range coefficients              100000000
 Omega coefficients                         300
 if combine SR and LR in K                    1
 Integral screening is                        0
 Integral computing path is                   2
 max size of driver memory is            800000
 size of driver memory is                776718
 size of scratch memory is             29504930
 max col of scratch BK array              10000
 max len of scratch array in speh3          662
 max len of scratch index in speh4           32
 max int batch size is                      520
 min int batch size is                       52
 fixed nKL is                                30
 max L of basis functions is                  3
 order of int derivative is                   0
 number of shells is                         41
 number of basis is                         139
 number of cartesian basis is               139
 number of contracted shell pairs           861
 number of primitive shell pairs           4503
 maxK2 (contraction) of shell pair          169
 max number of K2 of shell pair               1
 max number of CS2 of shell pair            121
 max number of PS2 of shell pair           1014
 mem total for path MDJ                  544630
 -------------------------------------------------------
 Smallest overlap matrix eigenvalue = 2.13E-04
 Guess MOs from SCF MO coefficient file

 -----------------------------------------------------------------------
  General SCF calculation program by
  Eric Jon Sundstrom, Paul Horn, Yuezhi Mao, Dmitri Zuev, Alec White,
  David Stuck, Shaama M.S., Shane Yost, Joonho Lee, David Small,
  Daniel Levine, Susi Lehtola, Hugh Burton, Evgeny Epifanovsky
 -----------------------------------------------------------------------
 Exchange:     0.1500 Hartree-Fock + 1.0000 wB97M-V + LR-HF
 Correlation:  1.0000 wB97M-V
 Using Euler-Maclaurin-Lebedev (99,590) quadrature formula
 Nonlocal Correlation:  VV10 with C = 0.0100 and b = 6.00 and scale = 1.00000
 Grid used for NLC:  SG-1 standard quadrature
 using 16 threads for integral computing
 -------------------------------------------------------
 OpenMP Integral computing Module                
 Release: version 1.0, May 2013, Q-Chem Inc. Pittsburgh 
 -------------------------------------------------------
 using 16 threads for integral computing
 -------------------------------------------------------
 OpenMP Integral computing Module                
 Release: version 1.0, May 2013, Q-Chem Inc. Pittsburgh 
 -------------------------------------------------------
 -------------------------------------------------------
 OpenMP BLAS3 based DFT computing Module                
 Release: version 1.0, May 2013, Q-Chem Inc. Pittsburgh 
 -------------------------------------------------------
 -------------------------------------------------------
 OpenMP BLAS3 based DFT computing Module                
 Release: version 1.0, May 2013, Q-Chem Inc. Pittsburgh 
 -------------------------------------------------------
 -------------------------------------------------------
 OpenMP BLAS3 based DFT computing Module                
 Release: version 1.0, May 2013, Q-Chem Inc. Pittsburgh 
 -------------------------------------------------------
 Nonlocal correlation = 0.071774004544
 A restricted open-shell SCF calculation will be
 performed using GDM
 SCF converges when RMS gradient is below 1.0e-08
 ---------------------------------------
  Cycle       Energy        RMS Gradient
 ---------------------------------------
 Nonlocal correlation = 7.177374482097e-02
    1    -342.4869338788      5.39e-04   Normal BFGS step
 Nonlocal correlation = 7.177374256379e-02
    2    -342.4869344488      1.44e-04   Normal BFGS step
 Nonlocal correlation = 7.177377475318e-02
    3    -342.4869345029      2.29e-05   Normal BFGS step
 Nonlocal correlation = 7.177376652145e-02
    4    -342.4869345050      4.78e-06   Normal BFGS step
 Nonlocal correlation = 7.177376677463e-02
    5    -342.4869345052      1.35e-06   Normal BFGS step
 Nonlocal correlation = 7.177376717224e-02
    6    -342.4869345052      2.70e-07   Normal BFGS step
 Nonlocal correlation = 7.177376722292e-02
    7    -342.4869345052      6.81e-08   Normal BFGS step
 Nonlocal correlation = 7.177376722913e-02
    8    -342.4869345052      2.53e-08   Normal BFGS step
 Nonlocal correlation = 7.177376722955e-02
    9    -342.4869345052      3.15e-09  Convergence criterion met
The disked orbital energies are calculated using alpha and beta Focks
 ---------------------------------------
 SCF time:   CPU 329.91s  wall 22.00s 
<S^2> =          0.750000000
 SCF   energy in the final basis set =     -342.4869345052
 Total energy in the final basis set =     -342.4869345052
 
 --------------------------------------------------------------
 
                    Orbital Energies (a.u.)
 --------------------------------------------------------------
 
 Alpha MOs
 -- Occupied --
-77.382  -6.734  -4.852  -4.844  -4.842  -0.749  -0.483  -0.406
 -0.331
 -- Virtual --
  0.014   0.040   0.060   0.066   0.064   0.116   0.126   0.142
  0.164   0.169   0.172   0.244   0.264   0.278   0.283   0.299
  0.301   0.305   0.315   0.454   0.454   0.459   0.477   0.468
  0.485   0.476   0.584   0.602   0.615   0.659   0.673   0.685
  0.689   0.689   0.744   0.851   0.867   0.916   0.932   0.932
  0.934   0.988   0.994   1.023   1.083   1.081   1.138   1.369
  1.368   1.378   1.371   1.409   1.398   1.400   1.464   1.473
  1.654   1.677   1.680   1.765   1.861   1.901   1.979   2.078
  2.089   2.174   2.273   2.495   2.549   3.082   3.204   3.649
  3.683   3.706   3.771   3.865   3.874   3.922   4.050   4.117
  4.135   4.131   4.166   4.273   4.255   4.807   4.840   7.109
  7.110   7.177   7.521   7.962   9.671   9.926  10.019  12.102
 26.537  26.538  26.540  26.541  26.546  26.556  26.558  32.825
 32.825  32.853  33.021  33.252  41.188  41.467  41.568  70.907
 
 Beta MOs
 -- Occupied --
-77.378  -6.730  -4.837  -4.842  -4.839  -0.720  -0.474  -0.390
 -- Virtual --
 -0.042   0.012   0.039   0.059   0.063   0.064   0.117   0.131
  0.144   0.163   0.168   0.173   0.245   0.264   0.277   0.285
  0.295   0.300   0.312   0.316   0.457   0.458   0.473   0.474
  0.498   0.501   0.504   0.582   0.613   0.617   0.661   0.675
  0.692   0.694   0.694   0.753   0.859   0.872   0.916   0.932
  0.933   0.939   0.992   0.998   1.024   1.093   1.100   1.138
  1.377   1.386   1.396   1.396   1.420   1.438   1.439   1.473
  1.484   1.695   1.713   1.723   1.835   1.888   1.917   2.017
  2.094   2.111   2.243   2.296   2.517   2.592   3.098   3.228
  3.659   3.699   3.719   3.784   3.883   3.917   3.960   4.077
  4.133   4.158   4.171   4.182   4.280   4.295   4.829   4.866
  7.120   7.120   7.181   7.544   7.977   9.711   9.938  10.034
 12.129  26.541  26.543  26.546  26.547  26.551  26.559  26.560
 32.837  32.837  32.856  33.037  33.256  41.206  41.471  41.572
 70.919
 --------------------------------------------------------------
 
          Ground-State Mulliken Net Atomic Charges

     Atom                 Charge (a.u.)
  ----------------------------------------
      1 P                    -0.361360
      2 H                     0.180680
      3 H                     0.180680
  ----------------------------------------
  Sum of atomic charges =    -0.000000

 -----------------------------------------------------------------
                    Cartesian Multipole Moments
 -----------------------------------------------------------------
    Charge (ESU x 10^10)
                -0.0000
    Dipole Moment (Debye)
         X       0.0000      Y      -0.0000      Z       0.4960
       Tot       0.4960
    Quadrupole Moments (Debye-Ang)
        XX     -15.4103     XY      -0.0000     YY     -14.2141
        XZ      -0.0000     YZ      -0.0000     ZZ     -15.5359
    Octopole Moments (Debye-Ang^2)
       XXX       0.0000    XXY       0.0000    XYY       0.0000
       YYY      -0.0000    XXZ      -1.5976    XYZ       0.0000
       YYZ      -1.4903    XZZ       0.0000    YZZ      -0.0000
       ZZZ      -4.8434
    Hexadecapole Moments (Debye-Ang^3)
      XXXX     -25.2424   XXXY       0.0000   XXYY      -9.8022
      XYYY       0.0000   YYYY     -31.8603   XXXZ      -0.0000
      XXYZ      -0.0000   XYYZ      -0.0000   YYYZ      -0.0000
      XXZZ     -10.4504   XYZZ       0.0000   YYZZ     -10.5166
      XZZZ      -0.0000   YZZZ      -0.0000   ZZZZ     -36.2777
 -----------------------------------------------------------------
Archival summary:
1\1\n0045.mhg0\SP\ROProcedureUnspecified\BasisUnspecified\12(2)\yhljason\FriNov612:32:512020FriNov612:32:512020\0\\#,ROProcedureUnspecified,BasisUnspecified,\\0,2\P\H,1,1.42798\H,1,1.42798,2,91.5037\\\@

 Total job time:  22.77s(wall), 338.59s(cpu) 
 Fri Nov  6 12:32:52 2020

        *************************************************************
        *                                                           *
        *  Thank you very much for using Q-Chem.  Have a nice day.  *
        *                                                           *
        *************************************************************


 
User input: 6 of 6 
 
Q-Chem Developer Version!
                  Welcome to Q-Chem
     A Quantum Leap Into The Future Of Chemistry


 Q-Chem 5.1, Q-Chem, Inc., Pleasanton, CA (2018)

 Yihan Shao,  Zhengting Gan,  E. Epifanovsky,  A. T. B. Gilbert,  M. Wormit,  
 J. Kussmann,  A. W. Lange,  A. Behn,  Jia Deng,  Xintian Feng,  D. Ghosh,  
 M. Goldey,  P. R. Horn,  L. D. Jacobson,  I. Kaliman,  T. Kus,  A. Landau,  
 Jie Liu,  E. I. Proynov,  R. M. Richard,  R. P. Steele,  E. J. Sundstrom,  
 H. L. Woodcock III,  P. M. Zimmerman,  D. Zuev,  B. Albrecht,  E. Alguire,  
 S. A. Baeppler,  D. Barton,  Z. Benda,  Y. A. Bernard,  E. J. Berquist,  
 K. B. Bravaya,  H. Burton,  D. Casanova,  Chun-Min Chang,  Yunqing Chen,  
 A. Chien,  K. D. Closser,  M. P. Coons,  S. Coriani,  S. Dasgupta,  
 A. L. Dempwolff,  M. Diedenhofen,  Hainam Do,  R. G. Edgar,  Po-Tung Fang,  
 S. Faraji,  S. Fatehi,  Qingguo Feng,  K. D. Fenk,  J. Fosso-Tande,  
 Qinghui Ge,  A. Ghysels,  G. Gidofalvi,  J. Gomes,  J. Gonthier,  A. Gunina,  
 D. Hait,  M. W. D. Hanson-Heine,  P. H. P. Harbach,  A. W. Hauser,  
 J. E. Herr,  E. G. Hohenstein,  Z. C. Holden,  Kerwin Hui,  B. C. Huynh,  
 T.-C. Jagau,  Hyunjun Ji,  B. Kaduk,  K. Khistyaev,  Jaehoon Kim,  
 P. Klunzinger,  K. Koh,  D. Kosenkov,  L. Koulias,  T. Kowalczyk,  
 C. M. Krauter,  A. Kunitsa,  Ka Un Lao,  A. Laurent,  K. V. Lawler,  
 Joonho Lee,  D. Lefrancois,  S. Lehtola,  D. S. Levine,  Yi-Pei Li,  
 You-Sheng Lin,  Fenglai Liu,  E. Livshits,  A. Luenser,  P. Manohar,  
 E. Mansoor,  S. F. Manzer,  Shan-Ping Mao,  Yuezhi Mao,  N. Mardirossian,  
 A. V. Marenich,  T. Markovich,  L. A. Martinez-Martinez,  S. A. Maurer,  
 N. J. Mayhall,  S. C. McKenzie,  J.-M. Mewes,  A. F. Morrison,  
 J. W. Mullinax,  K. Nanda,  T. S. Nguyen-Beck,  R. Olivares-Amaya,  
 J. A. Parkhill,  T. M. Perrine,  F. Plasser,  P. Pokhilko,  S. Prager,  
 A. Prociuk,  E. Ramos,  D. R. Rehn,  F. Rob,  M. Schneider,  N. Sergueev,  
 S. M. Sharada,  S. Sharma,  D. W. Small,  T. Stauch,  T. Stein,  
 Yu-Chuan Su,  A. J. W. Thom,  A. Tkatchenko,  T. Tsuchimochi,  N. M. Tubman,  
 L. Vogt,  M. L. Vidal,  O. Vydrov,  M. A. Watson,  J. Wenzel,  
 M. de Wergifosse,  T. A. Wesolowski,  A. White,  J. Witte,  A. Yamada,  
 Jun Yang,  K. Yao,  S. Yeganeh,  S. R. Yost,  Zhi-Qiang You,  A. Zech,  
 Igor Ying Zhang,  Xing Zhang,  Yan Zhao,  Ying Zhu,  B. R. Brooks,  
 G. K. L. Chan,  C. J. Cramer,  M. S. Gordon,  W. J. Hehre,  A. Klamt,  
 M. W. Schmidt,  C. D. Sherrill,  D. G. Truhlar,  A. Aspuru-Guzik,  R. Baer,  
 A. T. Bell,  N. A. Besley,  Jeng-Da Chai,  A. E. DePrince, III,  
 R. A. DiStasio Jr.,  A. Dreuw,  B. D. Dunietz,  T. R. Furlani,  
 Chao-Ping Hsu,  Yousung Jung,  Jing Kong,  D. S. Lambrecht,  WanZhen Liang,  
 C. Ochsenfeld,  V. A. Rassolov,  L. V. Slipchenko,  J. E. Subotnik,  
 T. Van Voorhis,  J. M. Herbert,  A. I. Krylov,  P. M. W. Gill,  M. Head-Gordon

 Contributors to earlier versions of Q-Chem not listed above: 
 R. D. Adamson,  B. Austin,  J. Baker,  G. J. O. Beran,  K. Brandhorst,  
 S. T. Brown,  E. F. C. Byrd,  A. K. Chakraborty,  C.-L. Cheng,  
 Siu Hung Chien,  D. M. Chipman,  D. L. Crittenden,  H. Dachsel,  
 R. J. Doerksen,  A. D. Dutoi,  L. Fusti-Molnar,  W. A. Goddard III,  
 A. Golubeva-Zadorozhnaya,  S. R. Gwaltney,  G. Hawkins,  A. Heyden,  
 S. Hirata,  G. Kedziora,  F. J. Keil,  C. Kelley,  Jihan Kim,  R. A. King,  
 R. Z. Khaliullin,  P. P. Korambath,  W. Kurlancheek,  A. M. Lee,  M. S. Lee,  
 S. V. Levchenko,  Ching Yeh Lin,  D. Liotard,  R. C. Lochan,  I. Lotan,  
 P. E. Maslen,  N. Nair,  D. P. O'Neill,  D. Neuhauser,  E. Neuscamman,  
 C. M. Oana,  R. Olson,  B. Peters,  R. Peverati,  P. A. Pieniazek,  
 Y. M. Rhee,  J. Ritchie,  M. A. Rohrdanz,  E. Rosta,  N. J. Russ,  
 H. F. Schaefer III,  N. E. Schultz,  N. Shenvi,  A. C. Simmonett,  A. Sodt,  
 D. Stuck,  K. S. Thanthiriwatte,  V. Vanovschi,  Tao Wang,  A. Warshel,  
 C. F. Williams,  Q. Wu,  X. Xu,  W. Zhang

 Please cite Q-Chem as follows:
 Y. Shao et al., Mol. Phys. 113, 184-215 (2015)
 DOI: 10.1080/00268976.2014.952696

 Q-Chem 5.1.1 for Intel X86 EM64T Linux

 Parts of Q-Chem use Armadillo 8.300.2 (Tropical Shenanigans).
 http://arma.sourceforge.net/

 Q-Chem begins on Fri Nov  6 12:32:52 2020  

Host: n0045.mhg0
0

     Scratch files written to /local/scratch/users/yhljason/PH2_wB97M2_aug-cc-pcVTZ.inp20201106122540//
The previous job contains 0 fragments, simply inherited here
Input Ideriv = 0
Curr. Ideriv = -1
Max.  Ideriv = 0
Input Ideriv = 1
Curr. Ideriv = 0
Max.  Ideriv = 0

Checking the input file for inconsistencies... 	...done.

--------------------------------------------------------------
User input:
--------------------------------------------------------------
$molecule
read
$end

$rem

jobtype sp
exchange wb97m(2)
xc_grid 000099000590
basis aug-cc-pcVTZ
max_scf_cycles 200
thresh 14
scf_convergence 8
mem_total 128000
cc_memory 96000
cc_backend xm
mem_static 1500
symmetry false
sym_ignore true
scf_guess read
unrestricted false
scf_algorithm gdm
n_frozen_core 0
$end

$multipole_field
Z -0.0001
$end


--------------------------------------------------------------
 ----------------------------------------------------------------
             Standard Nuclear Orientation (Angstroms)
    I     Atom           X                Y                Z
 ----------------------------------------------------------------
    1      P       0.0000000000     0.0000000000     0.0000000000
    2      H       0.0000000000     1.0229000000     0.9964000000
    3      H       0.0000000000    -1.0229000000     0.9964000000
 ----------------------------------------------------------------
 Nuclear Repulsion Energy =    11.3759605773 hartrees
 There are        9 alpha and        8 beta electrons
 Requested basis set is aug-cc-pCVTZ
 There are 41 shells and 121 basis functions

 Total QAlloc Memory Limit 128000 MB
 Mega-Array Size      1467 MB
 MEM_STATIC part      1500 MB

                       Distance Matrix (Angstroms)
             P (  1)   H (  2)
   H (  2)  1.427984
   H (  3)  1.427984  2.045800
 
 Applying Cartesian multipole field
    Component          Value
    ---------          -----
     (0,0,1)       -1.00000E-04
 Nucleus-field energy     =    -0.0003765846 hartrees
 A cutoff of  1.0D-14 yielded    861 shell pairs
 There are      7573 function pairs (     10039 Cartesian)
 
 -------------------------------------------------------
 OpenMP Integral Computing Module                       
 Release: version 1.0, May 2013, Q-Chem Inc. Pittsburgh 
 -------------------------------------------------------
 Integral Job Info:
 Integral job number is                      11
 Integral operator is                         1
 short-range coefficients              15000000
 long-range coefficients              100000000
 Omega coefficients                         300
 if combine SR and LR in K                    1
 Integral screening is                        0
 Integral computing path is                   2
 max size of driver memory is            800000
 size of driver memory is                776718
 size of scratch memory is             29504930
 max col of scratch BK array              10000
 max len of scratch array in speh3          662
 max len of scratch index in speh4           32
 max int batch size is                      520
 min int batch size is                       52
 fixed nKL is                                30
 max L of basis functions is                  3
 order of int derivative is                   0
 number of shells is                         41
 number of basis is                         139
 number of cartesian basis is               139
 number of contracted shell pairs           861
 number of primitive shell pairs           4503
 maxK2 (contraction) of shell pair          169
 max number of K2 of shell pair               1
 max number of CS2 of shell pair            121
 max number of PS2 of shell pair           1014
 mem total for path MDJ                  544630
 -------------------------------------------------------
 Smallest overlap matrix eigenvalue = 2.13E-04
 Guess MOs from SCF MO coefficient file
 Reading MOs from coefficient file
 Reading MOs from coefficient file
 Long-range K will be added via erf
 Coulomb attenuation parameter = 0.3 bohr**(-1)
 A restricted hybrid HF-DFT SCF calculation will be
 performed using Geometric Direct Minimization
 Exchange:     0.1500 Hartree-Fock + 1.0000 wB97M-V + LR-HF
 Correlation:  1.0000 wB97M-V
 Using Euler-Maclaurin-Lebedev (99,590) quadrature formula
 Nonlocal Correlation:  VV10 with C = 0.0100 and b = 6.00 and scale = 1.00000
 Grid used for NLC:  SG-1 standard quadrature
 SCF converges when RMS gradient is below 1.0E-08
Using Q-Chem read-in guess as SCF_GUESS READ specified.

 using 16 threads for integral computing
 -------------------------------------------------------
 OpenMP Integral computing Module                
 Release: version 1.0, May 2013, Q-Chem Inc. Pittsburgh 
 -------------------------------------------------------
 using 16 threads for integral computing
 -------------------------------------------------------
 OpenMP Integral computing Module                
 Release: version 1.0, May 2013, Q-Chem Inc. Pittsburgh 
 -------------------------------------------------------
TIMEINFO->: J/JK contribution 16.12 sec.
 -------------------------------------------------------
 OpenMP BLAS3 based DFT computing Module                
 Release: version 1.0, May 2013, Q-Chem Inc. Pittsburgh 
 -------------------------------------------------------
 -------------------------------------------------------
 OpenMP BLAS3 based DFT computing Module                
 Release: version 1.0, May 2013, Q-Chem Inc. Pittsburgh 
 -------------------------------------------------------
 -------------------------------------------------------
 OpenMP BLAS3 based DFT computing Module                
 Release: version 1.0, May 2013, Q-Chem Inc. Pittsburgh 
 -------------------------------------------------------
 ---------------------------------------
  Cycle       Energy        RMS Gradient
 ---------------------------------------
    1    -342.4869345052      1.02E-09 Normal BFGS step
TIMEINFO->: J/JK contribution 16.20 sec.
   GDM::WARNING energy changes are now smaller than effective accuracy.
   GDM::        calculation will continue, but THRESH should be increased
   GDM::        or SCF_CONVERGENCE decreased.
   GDM::        effective_thresh =   9.000000000000000E-011
 Nonlocal correlation =     0.0230751719
    2    -342.4869345052      3.64E-10 Convergence criterion met
 ---------------------------------------
 wB97M-V orbitals are now ready for the wB97M(2) calculation.
 wB97M(2) energy = Exch (0.62194 SRHF + 1.0 LRHF + wB97M(2)_EXCH) + 
               Corr (wB97M(2)_CORR + 0.34096 MP2 + 0.65904 VV10(b=10))
 SCF time:  CPU 99.24 s  wall 6.27 s
 SCF   energy in the final basis set = -342.42512900
 Total energy in the final basis set = -342.42512900
 
 Components of the MP2 correlation energy:
        aaaa  correlation energy =        -0.0242936650 au
        abab  correlation energy =        -0.1343667811 au
        bbbb  correlation energy =        -0.0194865636 au
        non-Brillouin singles    =        -0.0005882160 au

 Total  MP2   correlation energy =                    -0.17873523 au
        MP2         total energy =                  -342.60386422 au
 
 --------------------------------------------------------------
 
                    Orbital Energies (a.u.)
 --------------------------------------------------------------
 
 Alpha MOs
 -- Occupied --
-77.382  -6.734  -4.844  -4.852  -4.842  -0.749  -0.483  -0.406
 -0.331
 -- Virtual --
  0.013   0.040   0.060   0.064   0.065   0.114   0.126   0.141
  0.163   0.168   0.171   0.244   0.264   0.278   0.283   0.299
  0.301   0.305   0.315   0.449   0.453   0.460   0.477   0.469
  0.477   0.489   0.584   0.603   0.615   0.659   0.673   0.685
  0.688   0.689   0.744   0.851   0.867   0.916   0.932   0.932
  0.935   0.989   0.994   1.023   1.083   1.081   1.138   1.369
  1.368   1.371   1.376   1.398   1.400   1.411   1.464   1.473
  1.653   1.678   1.680   1.765   1.863   1.902   1.979   2.078
  2.089   2.175   2.273   2.495   2.549   3.082   3.204   3.649
  3.683   3.706   3.771   3.865   3.874   3.922   4.050   4.117
  4.136   4.131   4.166   4.256   4.273   4.807   4.840   7.109
  7.110   7.177   7.521   7.962   9.672   9.926  10.019  12.102
 26.537  26.537  26.540  26.541  26.546  26.557  26.558  32.825
 32.825  32.853  33.021  33.252  41.188  41.467  41.568  70.907
 
 Beta MOs
 -- Occupied --
-77.378  -6.730  -4.842  -4.837  -4.839  -0.720  -0.474  -0.390
 -- Virtual --
 -0.042   0.012   0.039   0.059   0.065   0.064   0.118   0.131
  0.144   0.163   0.169   0.173   0.245   0.264   0.277   0.285
  0.295   0.300   0.312   0.316   0.460   0.459   0.472   0.474
  0.497   0.503   0.499   0.583   0.613   0.617   0.661   0.675
  0.693   0.694   0.694   0.753   0.859   0.872   0.916   0.932
  0.933   0.939   0.992   0.998   1.024   1.093   1.100   1.138
  1.377   1.386   1.396   1.397   1.437   1.439   1.419   1.473
  1.484   1.695   1.713   1.724   1.835   1.887   1.917   2.016
  2.094   2.110   2.243   2.296   2.517   2.592   3.098   3.228
  3.659   3.699   3.719   3.784   3.883   3.917   3.960   4.077
  4.133   4.158   4.171   4.183   4.294   4.280   4.829   4.866
  7.119   7.120   7.181   7.544   7.976   9.711   9.938  10.034
 12.129  26.541  26.543  26.546  26.547  26.551  26.559  26.560
 32.837  32.837  32.856  33.037  33.256  41.206  41.471  41.572
 70.919
 --------------------------------------------------------------
 
          Ground-State Mulliken Net Atomic Charges

     Atom                 Charge (a.u.)
  ----------------------------------------
      1 P                    -0.361360
      2 H                     0.180680
      3 H                     0.180680
  ----------------------------------------
  Sum of atomic charges =     0.000000

 -----------------------------------------------------------------
                    Cartesian Multipole Moments
 -----------------------------------------------------------------
    Charge (ESU x 10^10)
                 0.0000
    Dipole Moment (Debye)
         X       0.0000      Y      -0.0000      Z       0.4960
       Tot       0.4960
    Quadrupole Moments (Debye-Ang)
        XX     -15.4103     XY      -0.0000     YY     -14.2141
        XZ      -0.0000     YZ      -0.0000     ZZ     -15.5359
    Octopole Moments (Debye-Ang^2)
       XXX       0.0000    XXY      -0.0000    XYY       0.0000
       YYY      -0.0000    XXZ      -1.5976    XYZ       0.0000
       YYZ      -1.4903    XZZ       0.0000    YZZ      -0.0000
       ZZZ      -4.8434
    Hexadecapole Moments (Debye-Ang^3)
      XXXX     -25.2424   XXXY       0.0000   XXYY      -9.8022
      XYYY       0.0000   YYYY     -31.8603   XXXZ      -0.0000
      XXYZ      -0.0000   XYYZ      -0.0000   YYYZ      -0.0000
      XXZZ     -10.4504   XYZZ       0.0000   YYZZ     -10.5166
      XZZZ      -0.0000   YZZZ      -0.0000   ZZZZ     -36.2777
 -----------------------------------------------------------------
Archival summary:
1\1\n0045.mhg0\SP\ROProcedureUnspecified\BasisUnspecified\12(2)\yhljason\FriNov612:33:162020FriNov612:33:162020\0\\#,ROProcedureUnspecified,BasisUnspecified,\\0,2\P\H,1,1.42798\H,1,1.42798,2,91.5037\\\@

 Total job time:  24.32s(wall), 385.13s(cpu) 
 Fri Nov  6 12:33:16 2020

        *************************************************************
        *                                                           *
        *  Thank you very much for using Q-Chem.  Have a nice day.  *
        *                                                           *
        *************************************************************


