Q-Chem Developer Version!
                  Welcome to Q-Chem
     A Quantum Leap Into The Future Of Chemistry


 Q-Chem 5.1, Q-Chem, Inc., Pleasanton, CA (2018)

 Yihan Shao,  Zhengting Gan,  E. Epifanovsky,  A. T. B. Gilbert,  M. Wormit,  
 J. Kussmann,  A. W. Lange,  A. Behn,  Jia Deng,  Xintian Feng,  D. Ghosh,  
 M. Goldey,  P. R. Horn,  L. D. Jacobson,  I. Kaliman,  T. Kus,  A. Landau,  
 Jie Liu,  E. I. Proynov,  R. M. Richard,  R. P. Steele,  E. J. Sundstrom,  
 H. L. Woodcock III,  P. M. Zimmerman,  D. Zuev,  B. Albrecht,  E. Alguire,  
 S. A. Baeppler,  D. Barton,  Z. Benda,  Y. A. Bernard,  E. J. Berquist,  
 K. B. Bravaya,  H. Burton,  D. Casanova,  Chun-Min Chang,  Yunqing Chen,  
 A. Chien,  K. D. Closser,  M. P. Coons,  S. Coriani,  S. Dasgupta,  
 A. L. Dempwolff,  M. Diedenhofen,  Hainam Do,  R. G. Edgar,  Po-Tung Fang,  
 S. Faraji,  S. Fatehi,  Qingguo Feng,  K. D. Fenk,  J. Fosso-Tande,  
 Qinghui Ge,  A. Ghysels,  G. Gidofalvi,  J. Gomes,  J. Gonthier,  A. Gunina,  
 D. Hait,  M. W. D. Hanson-Heine,  P. H. P. Harbach,  A. W. Hauser,  
 J. E. Herr,  E. G. Hohenstein,  Z. C. Holden,  Kerwin Hui,  B. C. Huynh,  
 T.-C. Jagau,  Hyunjun Ji,  B. Kaduk,  K. Khistyaev,  Jaehoon Kim,  
 P. Klunzinger,  K. Koh,  D. Kosenkov,  L. Koulias,  T. Kowalczyk,  
 C. M. Krauter,  A. Kunitsa,  Ka Un Lao,  A. Laurent,  K. V. Lawler,  
 Joonho Lee,  D. Lefrancois,  S. Lehtola,  D. S. Levine,  Yi-Pei Li,  
 You-Sheng Lin,  Fenglai Liu,  E. Livshits,  A. Luenser,  P. Manohar,  
 E. Mansoor,  S. F. Manzer,  Shan-Ping Mao,  Yuezhi Mao,  N. Mardirossian,  
 A. V. Marenich,  T. Markovich,  L. A. Martinez-Martinez,  S. A. Maurer,  
 N. J. Mayhall,  S. C. McKenzie,  J.-M. Mewes,  A. F. Morrison,  
 J. W. Mullinax,  K. Nanda,  T. S. Nguyen-Beck,  R. Olivares-Amaya,  
 J. A. Parkhill,  T. M. Perrine,  F. Plasser,  P. Pokhilko,  S. Prager,  
 A. Prociuk,  E. Ramos,  D. R. Rehn,  F. Rob,  M. Schneider,  N. Sergueev,  
 S. M. Sharada,  S. Sharma,  D. W. Small,  T. Stauch,  T. Stein,  
 Yu-Chuan Su,  A. J. W. Thom,  A. Tkatchenko,  T. Tsuchimochi,  N. M. Tubman,  
 L. Vogt,  M. L. Vidal,  O. Vydrov,  M. A. Watson,  J. Wenzel,  
 M. de Wergifosse,  T. A. Wesolowski,  A. White,  J. Witte,  A. Yamada,  
 Jun Yang,  K. Yao,  S. Yeganeh,  S. R. Yost,  Zhi-Qiang You,  A. Zech,  
 Igor Ying Zhang,  Xing Zhang,  Yan Zhao,  Ying Zhu,  B. R. Brooks,  
 G. K. L. Chan,  C. J. Cramer,  M. S. Gordon,  W. J. Hehre,  A. Klamt,  
 M. W. Schmidt,  C. D. Sherrill,  D. G. Truhlar,  A. Aspuru-Guzik,  R. Baer,  
 A. T. Bell,  N. A. Besley,  Jeng-Da Chai,  A. E. DePrince, III,  
 R. A. DiStasio Jr.,  A. Dreuw,  B. D. Dunietz,  T. R. Furlani,  
 Chao-Ping Hsu,  Yousung Jung,  Jing Kong,  D. S. Lambrecht,  WanZhen Liang,  
 C. Ochsenfeld,  V. A. Rassolov,  L. V. Slipchenko,  J. E. Subotnik,  
 T. Van Voorhis,  J. M. Herbert,  A. I. Krylov,  P. M. W. Gill,  M. Head-Gordon

 Contributors to earlier versions of Q-Chem not listed above: 
 R. D. Adamson,  B. Austin,  J. Baker,  G. J. O. Beran,  K. Brandhorst,  
 S. T. Brown,  E. F. C. Byrd,  A. K. Chakraborty,  C.-L. Cheng,  
 Siu Hung Chien,  D. M. Chipman,  D. L. Crittenden,  H. Dachsel,  
 R. J. Doerksen,  A. D. Dutoi,  L. Fusti-Molnar,  W. A. Goddard III,  
 A. Golubeva-Zadorozhnaya,  S. R. Gwaltney,  G. Hawkins,  A. Heyden,  
 S. Hirata,  G. Kedziora,  F. J. Keil,  C. Kelley,  Jihan Kim,  R. A. King,  
 R. Z. Khaliullin,  P. P. Korambath,  W. Kurlancheek,  A. M. Lee,  M. S. Lee,  
 S. V. Levchenko,  Ching Yeh Lin,  D. Liotard,  R. C. Lochan,  I. Lotan,  
 P. E. Maslen,  N. Nair,  D. P. O'Neill,  D. Neuhauser,  E. Neuscamman,  
 C. M. Oana,  R. Olson,  B. Peters,  R. Peverati,  P. A. Pieniazek,  
 Y. M. Rhee,  J. Ritchie,  M. A. Rohrdanz,  E. Rosta,  N. J. Russ,  
 H. F. Schaefer III,  N. E. Schultz,  N. Shenvi,  A. C. Simmonett,  A. Sodt,  
 D. Stuck,  K. S. Thanthiriwatte,  V. Vanovschi,  Tao Wang,  A. Warshel,  
 C. F. Williams,  Q. Wu,  X. Xu,  W. Zhang

 Please cite Q-Chem as follows:
 Y. Shao et al., Mol. Phys. 113, 184-215 (2015)
 DOI: 10.1080/00268976.2014.952696

 Q-Chem 5.1.1 for Intel X86 EM64T Linux

 Parts of Q-Chem use Armadillo 8.300.2 (Tropical Shenanigans).
 http://arma.sourceforge.net/

 Q-Chem begins on Fri Nov  6 12:29:28 2020  

Host: n0042.mhg0
0

     Scratch files written to /local/scratch/users/yhljason/PH3_wB97M2_aug-cc-pcVQZ.inp20201106122541//
Input Ideriv = 2
Curr. Ideriv = -1
Max.  Ideriv = 2
Input Ideriv = 1
Curr. Ideriv = 2
Max.  Ideriv = 1

Checking the input file for inconsistencies... 	...done.

--------------------------------------------------------------
User input:
--------------------------------------------------------------
$molecule
0 1
P1      0.0000  0.0000  0.0000
H2      0.0000  -1.1932 -0.7717
H3      1.0333  0.5966  -0.7717
H4      -1.0333 0.5966  -0.7717
$end

$rem
jobtype sp
method wB97M-V
xc_grid 000099000590
basis aug-cc-pcVQZ
max_scf_cycles 200
thresh 14
scf_convergence 8
scf_algorithm gdm
symmetry false
sym_ignore true
unrestricted false
gen_scfman true
internal_stability_iter 15
internal_stability_davidson_iter 200
mem_total 128000
n_frozen_core 0
$end



--------------------------------------------------------------
 ----------------------------------------------------------------
             Standard Nuclear Orientation (Angstroms)
    I     Atom           X                Y                Z
 ----------------------------------------------------------------
    1      P       0.0000000000     0.0000000000     0.0000000000
    2      H       0.0000000000    -1.1932000000    -0.7717000000
    3      H       1.0333000000     0.5966000000    -0.7717000000
    4      H      -1.0333000000     0.5966000000    -0.7717000000
 ----------------------------------------------------------------
 Nuclear Repulsion Energy =    17.5262807188 hartrees
 There are        9 alpha and        9 beta electrons
 Requested basis set is aug-cc-pCVQZ
 There are 76 shells and 272 basis functions

 Total QAlloc Memory Limit 128000 MB
 Mega-Array Size       188 MB
 MEM_STATIC part       192 MB

                       Distance Matrix (Angstroms)
             P (  1)   H (  2)   H (  3)
   H (  2)  1.421002
   H (  3)  1.420972  2.066662
   H (  4)  1.420972  2.066662  2.066600
 
 A cutoff of  1.0D-14 yielded   2926 shell pairs
 There are     37690 function pairs (     58743 Cartesian)
 
 -------------------------------------------------------
 OpenMP Integral Computing Module                       
 Release: version 1.0, May 2013, Q-Chem Inc. Pittsburgh 
 -------------------------------------------------------
 Integral Job Info:
 Integral job number is                      11
 Integral operator is                         1
 short-range coefficients              15000000
 long-range coefficients              100000000
 Omega coefficients                         300
 if combine SR and LR in K                    1
 Integral screening is                        0
 Integral computing path is                   2
 max size of driver memory is           3200000
 size of driver memory is               1704330
 size of scratch memory is             28840424
 max col of scratch BK array              50625
 max len of scratch array in speh3         2114
 max len of scratch index in speh4           50
 max int batch size is                      520
 min int batch size is                       52
 fixed nKL is                                21
 max L of basis functions is                  4
 order of int derivative is                   0
 number of shells is                         76
 number of basis is                         339
 number of cartesian basis is               339
 number of contracted shell pairs          2926
 number of primitive shell pairs           8738
 maxK2 (contraction) of shell pair          169
 max number of K2 of shell pair               1
 max number of CS2 of shell pair            364
 max number of PS2 of shell pair           1014
 mem total for path MDJ                  695312
 -------------------------------------------------------
 Smallest overlap matrix eigenvalue = 2.72E-05

 Scale SEOQF with 1.000000e-01/1.000000e-01/1.000000e-01

 Standard Electronic Orientation quadrupole field applied
 Guess from superposition of atomic densities
 Warning:  Energy on first SCF cycle will be non-variational
 SAD guess density has 18.000000 electrons

 -----------------------------------------------------------------------
  General SCF calculation program by
  Eric Jon Sundstrom, Paul Horn, Yuezhi Mao, Dmitri Zuev, Alec White,
  David Stuck, Shaama M.S., Shane Yost, Joonho Lee, David Small,
  Daniel Levine, Susi Lehtola, Hugh Burton, Evgeny Epifanovsky
 -----------------------------------------------------------------------
 Exchange:     0.1500 Hartree-Fock + 1.0000 wB97M-V + LR-HF
 Correlation:  1.0000 wB97M-V
 Using Euler-Maclaurin-Lebedev (99,590) quadrature formula
 Nonlocal Correlation:  VV10 with C = 0.0100 and b = 6.00 and scale = 1.00000
 Grid used for NLC:  SG-1 standard quadrature
Running Object-Oriented RKS (RHF)
 Nonlocal correlation = 0.074787712991
 Nonlocal correlation = 0.075244463064
We will preform up to 15 macro iterations over saddle points until a stable solution is found
Energy prior to optimization (guess energy) = -343.122163161133
Begin Timing: Total SCF Calculation
Begin Timing: SCF Single Stationary Point Calculation
begin iterations for algorithm: GDM          
the SCF tolerance is set to 1.00e-08
 Nonlocal correlation = 7.534016928993e-02
    1    -343.1221631611      2.28e-02     00000  Normal BFGS step
 Nonlocal correlation = 7.536123640872e-02
    2    -343.1262185594      6.54e-03     00000  Normal BFGS step
 Nonlocal correlation = 7.535859022039e-02
    3    -343.1266996144      1.27e-03     00000  Normal BFGS step
 Nonlocal correlation = 7.535934928404e-02
    4    -343.1267218116      2.94e-04     00000  Normal BFGS step
 Nonlocal correlation = 7.535940736188e-02
    5    -343.1267232396      6.12e-05     00000  Normal BFGS step
 Nonlocal correlation = 7.535938058961e-02
    6    -343.1267233225      2.60e-05     00000  Normal BFGS step
 Nonlocal correlation = 7.535937474258e-02
    7    -343.1267233259      6.69e-06     00000  Normal BFGS step
 Nonlocal correlation = 7.535937345954e-02
    8    -343.1267233262      1.30e-06     00000  Normal BFGS step
 Nonlocal correlation = 7.535937322156e-02
    9    -343.1267233262      2.84e-07     00000  Normal BFGS step
 Nonlocal correlation = 7.535937315335e-02
   10    -343.1267233262      3.71e-08     00000  Normal BFGS step
 Nonlocal correlation = 7.535937313720e-02
   11    -343.1267233262      8.04e-09     00000 Convergence criterion met
Timing for Single Stationary Point: 156.00s (wall), 2429.98s (cpu)
Begin Timing: Stability
===================================================
Beginning Test for Internal Stability
===================================================
generating davidson guess vectors based on koopmans excitations
computing hessian-vector products by finite difference
 Nonlocal correlation = 0.075359371298
 Nonlocal correlation = 0.075359371416
 Nonlocal correlation = 0.075359379541
 Nonlocal correlation = 0.075359363141
 Nonlocal correlation = 0.075359373137
    1      1.64e+00     00000 Davidson Iteration
computing hessian-vector products by finite difference
 Nonlocal correlation = 7.535938004195e-02
 Nonlocal correlation = 7.535936262856e-02
 Nonlocal correlation = 7.535937078335e-02
 Nonlocal correlation = 7.535937189666e-02
 Nonlocal correlation = 7.535937313720e-02
    2      1.02e+00     00000 Davidson Iteration
computing hessian-vector products by finite difference
 Nonlocal correlation = 7.535936004310e-02
 Nonlocal correlation = 7.535938624221e-02
 Nonlocal correlation = 7.535936704777e-02
 Nonlocal correlation = 7.535937739969e-02
 Nonlocal correlation = 7.535937313720e-02
    3      2.39e-01     00000 Davidson Iteration
computing hessian-vector products by finite difference
 Nonlocal correlation = 7.535935450235e-02
 Nonlocal correlation = 7.535938995301e-02
 Nonlocal correlation = 7.535946018746e-02
 Nonlocal correlation = 7.535928337303e-02
 Nonlocal correlation = 7.535937313720e-02
    4      6.77e-02     00000 Davidson Iteration
computing hessian-vector products by finite difference
 Nonlocal correlation = 7.535934552795e-02
 Nonlocal correlation = 7.535940075061e-02
 Nonlocal correlation = 7.535943719136e-02
 Nonlocal correlation = 7.535930907829e-02
 Nonlocal correlation = 7.535937313720e-02
    5      2.27e-02     00000 Davidson Iteration
computing hessian-vector products by finite difference
 Nonlocal correlation = 7.535939669487e-02
 Nonlocal correlation = 7.535934775848e-02
 Nonlocal correlation = 7.535961232815e-02
 Nonlocal correlation = 7.535913394079e-02
 Nonlocal correlation = 7.535937313720e-02
    6      9.27e-03     00000 Davidson Iteration
computing hessian-vector products by finite difference
 Nonlocal correlation = 7.535936148550e-02
 Nonlocal correlation = 7.535938298181e-02
 Nonlocal correlation = 7.535932144594e-02
 Nonlocal correlation = 7.535942481800e-02
 Nonlocal correlation = 7.535937313720e-02
    7      2.67e-03     00000 Davidson Iteration
computing hessian-vector products by finite difference
 Nonlocal correlation = 7.535948332855e-02
 Nonlocal correlation = 7.535926203230e-02
 Nonlocal correlation = 7.535944171724e-02
 Nonlocal correlation = 7.535930364787e-02
 Nonlocal correlation = 7.535937313720e-02
    8      1.22e-03     00000 Davidson Iteration
computing hessian-vector products by finite difference
 Nonlocal correlation = 7.535950473668e-02
 Nonlocal correlation = 7.535923971833e-02
 Nonlocal correlation = 7.535922790394e-02
 Nonlocal correlation = 7.535951745904e-02
 Nonlocal correlation = 7.535937313720e-02
    9      7.38e-04     00000 Davidson Iteration
computing hessian-vector products by finite difference
 Nonlocal correlation = 7.535943954015e-02
 Nonlocal correlation = 7.535930672573e-02
 Nonlocal correlation = 7.535931560400e-02
 Nonlocal correlation = 7.535942887219e-02
 Nonlocal correlation = 7.535937313720e-02
   10      1.11e-02     00000 Davidson Iteration
computing hessian-vector products by finite difference
 Nonlocal correlation = 7.535934544177e-02
 Nonlocal correlation = 7.535939812769e-02
 Nonlocal correlation = 7.535939001604e-02
 Nonlocal correlation = 7.535935535540e-02
 Nonlocal correlation = 7.535937313720e-02
   11      3.07e-03     00000 Davidson Iteration
computing hessian-vector products by finite difference
 Nonlocal correlation = 7.535936557606e-02
 Nonlocal correlation = 7.535937978596e-02
 Nonlocal correlation = 7.535937493547e-02
 Nonlocal correlation = 7.535936775427e-02
 Nonlocal correlation = 7.535937313720e-02
   12      1.52e-03     00000 Davidson Iteration
computing hessian-vector products by finite difference
 Nonlocal correlation = 7.535937510239e-02
 Nonlocal correlation = 7.535937025197e-02
 Nonlocal correlation = 7.535939046591e-02
 Nonlocal correlation = 7.535935311208e-02
 Nonlocal correlation = 7.535937313720e-02
   13      5.68e-04     00000 Davidson Converged
converged_eigenvalues
   0.9622
   1.0593
Threshold for negative eigenvalues: -1.0e-05
solution was a local minimum (stable)
===================================================
End Test for Internal Stability
===================================================
Our SCF solution is stable!
Timing for Total SCF: 1051.00s (wall), 16568.94s (cpu)
 Total energy in the final basis set =     -343.1267233262
    ==================================================
              The end of Object-Oriented SCFman       
    ==================================================
 
 --------------------------------------------------------------
 
                    Orbital Energies (a.u.)
 --------------------------------------------------------------
 
 Alpha MOs
 -- Occupied --
-77.363  -6.719  -4.831  -4.831  -4.827  -0.761  -0.479  -0.479
 -0.371
 -- Virtual --
  0.010   0.036   0.036   0.048   0.056   0.056   0.096   0.115
  0.115   0.120   0.120   0.123   0.183   0.183   0.205   0.211
  0.211   0.226   0.229   0.229   0.234   0.272   0.274   0.274
  0.332   0.349   0.349   0.368   0.411   0.411   0.423   0.454
  0.470   0.477   0.477   0.494   0.494   0.513   0.513   0.590
  0.616   0.620   0.624   0.624   0.662   0.662   0.684   0.721
  0.721   0.737   0.760   0.760   0.830   0.831   0.831   0.857
  0.857   0.865   0.989   0.989   1.051   1.051   1.059   1.072
  1.076   1.087   1.087   1.130   1.130   1.191   1.253   1.297
  1.297   1.302   1.310   1.310   1.316   1.352   1.352   1.393
  1.464   1.507   1.507   1.546   1.546   1.582   1.608   1.608
  1.660   1.662   1.712   1.712   1.747   1.747   1.834   1.834
  1.859   1.864   1.902   1.918   1.918   1.924   1.960   1.960
  2.070   2.078   2.078   2.115   2.115   2.159   2.166   2.166
  2.232   2.286   2.286   2.468   2.468   2.519   2.538   2.538
  2.607   2.619   2.750   2.750   2.798   2.798   2.806   2.931
  2.936   2.936   2.958   3.028   3.032   3.032   3.124   3.156
  3.156   3.183   3.194   3.268   3.268   3.345   3.345   3.420
  3.420   3.486   3.515   3.572   3.572   3.692   3.796   3.796
  3.993   4.041   4.042   4.166   4.166   4.245   4.261   4.333
  4.333   5.273   5.535   5.535   6.316   6.316   6.319   6.373
  6.373   6.375   6.380   6.491   6.491   6.547   6.570   6.570
  6.658   6.658   6.712   6.875   7.061   7.061   7.095   7.095
  7.111   7.673   7.731   7.731   8.058   8.066   8.074   8.074
  8.095   8.095   8.184   8.190   8.190   8.477   8.477   8.561
  8.577   8.624   8.624   8.660   8.883   8.883   8.937   8.971
  8.971   8.983   9.233   9.233   9.290   9.434   9.434   9.790
 10.352  10.352  14.550  14.722  14.722  15.950  16.164  16.164
 16.214  16.569  16.569  16.573  24.116  26.954  26.974  26.974
 27.599  27.599  40.197  40.330  40.330  46.449  46.449  46.452
 46.455  46.455  46.456  46.457  46.457  46.460  56.619  56.724
 56.724  56.748  56.900  56.900  56.908  69.083  79.756  79.769
 79.771  80.205  80.206 124.919 125.025 125.025 330.253
 --------------------------------------------------------------
 
          Ground-State Mulliken Net Atomic Charges

     Atom                 Charge (a.u.)
  ----------------------------------------
      1 P                     0.123809
      2 H                    -0.041284
      3 H                    -0.041263
      4 H                    -0.041263
  ----------------------------------------
  Sum of atomic charges =    -0.000000

 -----------------------------------------------------------------
                    Cartesian Multipole Moments
 -----------------------------------------------------------------
    Charge (ESU x 10^10)
                -0.0000
    Dipole Moment (Debye)
         X      -0.0000      Y       0.0000      Z      -0.5494
       Tot       0.5494
    Quadrupole Moments (Debye-Ang)
        XX     -14.9501     XY       0.0000     YY     -14.9500
        XZ       0.0000     YZ      -0.0000     ZZ     -16.9827
    Octopole Moments (Debye-Ang^2)
       XXX      -0.0000    XXY       0.0215    XYY      -0.0000
       YYY      -0.0214    XXZ       1.7044    XYZ      -0.0000
       YYZ       1.7044    XZZ      -0.0000    YZZ       0.0001
       ZZZ       5.6200
    Hexadecapole Moments (Debye-Ang^3)
      XXXX     -32.3573   XXXY       0.0000   XXYY     -10.7859
      XYYY       0.0000   YYYY     -32.3581   XXXZ      -0.0000
      XXYZ      -0.6173   XYYZ       0.0000   YYYZ       0.6171
      XXZZ     -11.4605   XYZZ       0.0000   YYZZ     -11.4606
      XZZZ      -0.0000   YZZZ      -0.0001   ZZZZ     -38.6003
 -----------------------------------------------------------------
Archival summary:
1\1\n0042.mhg0\SP\ProcedureUnspecified\BasisUnspecified\13\yhljason\FriNov612:47:192020FriNov612:47:192020\0\\#,ProcedureUnspecified,BasisUnspecified,\\0,1\P\H,1,1.42097\H,1,1.42097,2,93.3007\H,1,1.421,2,93.3031,3,-93.5051,0\\\@

 Total job time:  1071.04s(wall), 16874.64s(cpu) 
 Fri Nov  6 12:47:19 2020

        *************************************************************
        *                                                           *
        *  Thank you very much for using Q-Chem.  Have a nice day.  *
        *                                                           *
        *************************************************************


 
User input: 2 of 6 
 
Q-Chem Developer Version!
                  Welcome to Q-Chem
     A Quantum Leap Into The Future Of Chemistry


 Q-Chem 5.1, Q-Chem, Inc., Pleasanton, CA (2018)

 Yihan Shao,  Zhengting Gan,  E. Epifanovsky,  A. T. B. Gilbert,  M. Wormit,  
 J. Kussmann,  A. W. Lange,  A. Behn,  Jia Deng,  Xintian Feng,  D. Ghosh,  
 M. Goldey,  P. R. Horn,  L. D. Jacobson,  I. Kaliman,  T. Kus,  A. Landau,  
 Jie Liu,  E. I. Proynov,  R. M. Richard,  R. P. Steele,  E. J. Sundstrom,  
 H. L. Woodcock III,  P. M. Zimmerman,  D. Zuev,  B. Albrecht,  E. Alguire,  
 S. A. Baeppler,  D. Barton,  Z. Benda,  Y. A. Bernard,  E. J. Berquist,  
 K. B. Bravaya,  H. Burton,  D. Casanova,  Chun-Min Chang,  Yunqing Chen,  
 A. Chien,  K. D. Closser,  M. P. Coons,  S. Coriani,  S. Dasgupta,  
 A. L. Dempwolff,  M. Diedenhofen,  Hainam Do,  R. G. Edgar,  Po-Tung Fang,  
 S. Faraji,  S. Fatehi,  Qingguo Feng,  K. D. Fenk,  J. Fosso-Tande,  
 Qinghui Ge,  A. Ghysels,  G. Gidofalvi,  J. Gomes,  J. Gonthier,  A. Gunina,  
 D. Hait,  M. W. D. Hanson-Heine,  P. H. P. Harbach,  A. W. Hauser,  
 J. E. Herr,  E. G. Hohenstein,  Z. C. Holden,  Kerwin Hui,  B. C. Huynh,  
 T.-C. Jagau,  Hyunjun Ji,  B. Kaduk,  K. Khistyaev,  Jaehoon Kim,  
 P. Klunzinger,  K. Koh,  D. Kosenkov,  L. Koulias,  T. Kowalczyk,  
 C. M. Krauter,  A. Kunitsa,  Ka Un Lao,  A. Laurent,  K. V. Lawler,  
 Joonho Lee,  D. Lefrancois,  S. Lehtola,  D. S. Levine,  Yi-Pei Li,  
 You-Sheng Lin,  Fenglai Liu,  E. Livshits,  A. Luenser,  P. Manohar,  
 E. Mansoor,  S. F. Manzer,  Shan-Ping Mao,  Yuezhi Mao,  N. Mardirossian,  
 A. V. Marenich,  T. Markovich,  L. A. Martinez-Martinez,  S. A. Maurer,  
 N. J. Mayhall,  S. C. McKenzie,  J.-M. Mewes,  A. F. Morrison,  
 J. W. Mullinax,  K. Nanda,  T. S. Nguyen-Beck,  R. Olivares-Amaya,  
 J. A. Parkhill,  T. M. Perrine,  F. Plasser,  P. Pokhilko,  S. Prager,  
 A. Prociuk,  E. Ramos,  D. R. Rehn,  F. Rob,  M. Schneider,  N. Sergueev,  
 S. M. Sharada,  S. Sharma,  D. W. Small,  T. Stauch,  T. Stein,  
 Yu-Chuan Su,  A. J. W. Thom,  A. Tkatchenko,  T. Tsuchimochi,  N. M. Tubman,  
 L. Vogt,  M. L. Vidal,  O. Vydrov,  M. A. Watson,  J. Wenzel,  
 M. de Wergifosse,  T. A. Wesolowski,  A. White,  J. Witte,  A. Yamada,  
 Jun Yang,  K. Yao,  S. Yeganeh,  S. R. Yost,  Zhi-Qiang You,  A. Zech,  
 Igor Ying Zhang,  Xing Zhang,  Yan Zhao,  Ying Zhu,  B. R. Brooks,  
 G. K. L. Chan,  C. J. Cramer,  M. S. Gordon,  W. J. Hehre,  A. Klamt,  
 M. W. Schmidt,  C. D. Sherrill,  D. G. Truhlar,  A. Aspuru-Guzik,  R. Baer,  
 A. T. Bell,  N. A. Besley,  Jeng-Da Chai,  A. E. DePrince, III,  
 R. A. DiStasio Jr.,  A. Dreuw,  B. D. Dunietz,  T. R. Furlani,  
 Chao-Ping Hsu,  Yousung Jung,  Jing Kong,  D. S. Lambrecht,  WanZhen Liang,  
 C. Ochsenfeld,  V. A. Rassolov,  L. V. Slipchenko,  J. E. Subotnik,  
 T. Van Voorhis,  J. M. Herbert,  A. I. Krylov,  P. M. W. Gill,  M. Head-Gordon

 Contributors to earlier versions of Q-Chem not listed above: 
 R. D. Adamson,  B. Austin,  J. Baker,  G. J. O. Beran,  K. Brandhorst,  
 S. T. Brown,  E. F. C. Byrd,  A. K. Chakraborty,  C.-L. Cheng,  
 Siu Hung Chien,  D. M. Chipman,  D. L. Crittenden,  H. Dachsel,  
 R. J. Doerksen,  A. D. Dutoi,  L. Fusti-Molnar,  W. A. Goddard III,  
 A. Golubeva-Zadorozhnaya,  S. R. Gwaltney,  G. Hawkins,  A. Heyden,  
 S. Hirata,  G. Kedziora,  F. J. Keil,  C. Kelley,  Jihan Kim,  R. A. King,  
 R. Z. Khaliullin,  P. P. Korambath,  W. Kurlancheek,  A. M. Lee,  M. S. Lee,  
 S. V. Levchenko,  Ching Yeh Lin,  D. Liotard,  R. C. Lochan,  I. Lotan,  
 P. E. Maslen,  N. Nair,  D. P. O'Neill,  D. Neuhauser,  E. Neuscamman,  
 C. M. Oana,  R. Olson,  B. Peters,  R. Peverati,  P. A. Pieniazek,  
 Y. M. Rhee,  J. Ritchie,  M. A. Rohrdanz,  E. Rosta,  N. J. Russ,  
 H. F. Schaefer III,  N. E. Schultz,  N. Shenvi,  A. C. Simmonett,  A. Sodt,  
 D. Stuck,  K. S. Thanthiriwatte,  V. Vanovschi,  Tao Wang,  A. Warshel,  
 C. F. Williams,  Q. Wu,  X. Xu,  W. Zhang

 Please cite Q-Chem as follows:
 Y. Shao et al., Mol. Phys. 113, 184-215 (2015)
 DOI: 10.1080/00268976.2014.952696

 Q-Chem 5.1.1 for Intel X86 EM64T Linux

 Parts of Q-Chem use Armadillo 8.300.2 (Tropical Shenanigans).
 http://arma.sourceforge.net/

 Q-Chem begins on Fri Nov  6 12:47:19 2020  

Host: n0042.mhg0
0

     Scratch files written to /local/scratch/users/yhljason/PH3_wB97M2_aug-cc-pcVQZ.inp20201106122541//
The previous job contains 0 fragments, simply inherited here
Input Ideriv = 0
Curr. Ideriv = -1
Max.  Ideriv = 0
Analytic post-HF gradients are not available with non-HF exchange
Input Ideriv = 0
Curr. Ideriv = 0
Max.  Ideriv = 0

Checking the input file for inconsistencies... 	...done.

--------------------------------------------------------------
User input:
--------------------------------------------------------------
$molecule
read
$end

$rem
jobtype sp
exchange wB97M(2)
xc_grid 000099000590
basis aug-cc-pcVQZ
max_scf_cycles 200
thresh 14
scf_convergence 8
scf_algorithm gdm
symmetry false
sym_ignore true
unrestricted false
gen_scfman false
mem_total 128000
cc_memory 96000
cc_backend xm
mem_static 1500
n_frozen_core 0
scf_guess read
$end



--------------------------------------------------------------
 ----------------------------------------------------------------
             Standard Nuclear Orientation (Angstroms)
    I     Atom           X                Y                Z
 ----------------------------------------------------------------
    1      P       0.0000000000     0.0000000000     0.0000000000
    2      H       0.0000000000    -1.1932000000    -0.7717000000
    3      H       1.0333000000     0.5966000000    -0.7717000000
    4      H      -1.0333000000     0.5966000000    -0.7717000000
 ----------------------------------------------------------------
 Nuclear Repulsion Energy =    17.5262807188 hartrees
 There are        9 alpha and        9 beta electrons
 Requested basis set is aug-cc-pCVQZ
 There are 76 shells and 272 basis functions

 Total QAlloc Memory Limit 128000 MB
 Mega-Array Size      1467 MB
 MEM_STATIC part      1500 MB

                       Distance Matrix (Angstroms)
             P (  1)   H (  2)   H (  3)
   H (  2)  1.421002
   H (  3)  1.420972  2.066662
   H (  4)  1.420972  2.066662  2.066600
 
 A cutoff of  1.0D-14 yielded   2926 shell pairs
 There are     37690 function pairs (     58743 Cartesian)
 
 -------------------------------------------------------
 OpenMP Integral Computing Module                       
 Release: version 1.0, May 2013, Q-Chem Inc. Pittsburgh 
 -------------------------------------------------------
 Integral Job Info:
 Integral job number is                      11
 Integral operator is                         1
 short-range coefficients              15000000
 long-range coefficients              100000000
 Omega coefficients                         300
 if combine SR and LR in K                    1
 Integral screening is                        0
 Integral computing path is                   2
 max size of driver memory is           3200000
 size of driver memory is               1704330
 size of scratch memory is             28840424
 max col of scratch BK array              50625
 max len of scratch array in speh3         2114
 max len of scratch index in speh4           50
 max int batch size is                      520
 min int batch size is                       52
 fixed nKL is                                21
 max L of basis functions is                  4
 order of int derivative is                   0
 number of shells is                         76
 number of basis is                         339
 number of cartesian basis is               339
 number of contracted shell pairs          2926
 number of primitive shell pairs           8738
 maxK2 (contraction) of shell pair          169
 max number of K2 of shell pair               1
 max number of CS2 of shell pair            364
 max number of PS2 of shell pair           1014
 mem total for path MDJ                  695312
 -------------------------------------------------------
 Smallest overlap matrix eigenvalue = 2.72E-05

 Scale SEOQF with 1.000000e-01/1.000000e-01/1.000000e-01

 Standard Electronic Orientation quadrupole field applied
 Guess MOs from SCF MO coefficient file
 Reading MOs from coefficient file
 Reading MOs from coefficient file
 Long-range K will be added via erf
 Coulomb attenuation parameter = 0.3 bohr**(-1)
 A restricted hybrid HF-DFT SCF calculation will be
 performed using Geometric Direct Minimization
 Exchange:     0.1500 Hartree-Fock + 1.0000 wB97M-V + LR-HF
 Correlation:  1.0000 wB97M-V
 Using Euler-Maclaurin-Lebedev (99,590) quadrature formula
 Nonlocal Correlation:  VV10 with C = 0.0100 and b = 6.00 and scale = 1.00000
 Grid used for NLC:  SG-1 standard quadrature
 SCF converges when RMS gradient is below 1.0E-08
Using Q-Chem read-in guess as SCF_GUESS READ specified.

 using 16 threads for integral computing
 -------------------------------------------------------
 OpenMP Integral computing Module                
 Release: version 1.0, May 2013, Q-Chem Inc. Pittsburgh 
 -------------------------------------------------------
 using 16 threads for integral computing
 -------------------------------------------------------
 OpenMP Integral computing Module                
 Release: version 1.0, May 2013, Q-Chem Inc. Pittsburgh 
 -------------------------------------------------------
TIMEINFO->: J/JK contribution 181.82 sec.
 -------------------------------------------------------
 OpenMP BLAS3 based DFT computing Module                
 Release: version 1.0, May 2013, Q-Chem Inc. Pittsburgh 
 -------------------------------------------------------
 -------------------------------------------------------
 OpenMP BLAS3 based DFT computing Module                
 Release: version 1.0, May 2013, Q-Chem Inc. Pittsburgh 
 -------------------------------------------------------
 -------------------------------------------------------
 OpenMP BLAS3 based DFT computing Module                
 Release: version 1.0, May 2013, Q-Chem Inc. Pittsburgh 
 -------------------------------------------------------
 ---------------------------------------
  Cycle       Energy        RMS Gradient
 ---------------------------------------
    1    -343.1267233262      1.10E-09 Normal BFGS step
TIMEINFO->: J/JK contribution 179.08 sec.
   GDM::WARNING energy changes are now smaller than effective accuracy.
   GDM::        calculation will continue, but THRESH should be increased
   GDM::        or SCF_CONVERGENCE decreased.
   GDM::        effective_thresh =   9.000000000000000E-011
 Nonlocal correlation =     0.0242786768
    2    -343.1267233262      4.25E-10 Convergence criterion met
 ---------------------------------------
 wB97M-V orbitals are now ready for the wB97M(2) calculation.
 wB97M(2) energy = Exch (0.62194 SRHF + 1.0 LRHF + wB97M(2)_EXCH) + 
               Corr (wB97M(2)_CORR + 0.34096 MP2 + 0.65904 VV10(b=10))
 SCF time:  CPU 793.00 s  wall 50.66 s
 SCF   energy in the final basis set = -343.05699767
 Total energy in the final basis set = -343.05699767
 
 Components of the MP2 correlation energy:
        aaaa  correlation energy =        -0.0243964625 au
        abab  correlation energy =        -0.1648823271 au
        bbbb  correlation energy =        -0.0243964625 au
        non-Brillouin singles    =        -0.0000000000 au

 Total  MP2   correlation energy =                    -0.21367525 au
        MP2         total energy =                  -343.27067292 au
 
 --------------------------------------------------------------
 
                    Orbital Energies (a.u.)
 --------------------------------------------------------------
 
 Alpha MOs
 -- Occupied --
-77.363  -6.719  -4.831  -4.831  -4.827  -0.761  -0.479  -0.479
 -0.371
 -- Virtual --
  0.010   0.036   0.036   0.048   0.056   0.056   0.096   0.115
  0.115   0.120   0.120   0.123   0.183   0.183   0.205   0.211
  0.211   0.226   0.229   0.229   0.234   0.272   0.274   0.274
  0.332   0.349   0.349   0.368   0.411   0.411   0.423   0.454
  0.470   0.477   0.477   0.494   0.494   0.513   0.513   0.590
  0.616   0.620   0.624   0.624   0.662   0.662   0.684   0.721
  0.721   0.737   0.760   0.760   0.830   0.831   0.831   0.857
  0.857   0.865   0.989   0.989   1.051   1.051   1.059   1.072
  1.076   1.087   1.087   1.130   1.130   1.191   1.253   1.297
  1.297   1.302   1.310   1.310   1.316   1.352   1.352   1.393
  1.464   1.507   1.507   1.546   1.546   1.582   1.608   1.608
  1.660   1.662   1.712   1.712   1.747   1.747   1.834   1.834
  1.859   1.864   1.902   1.918   1.918   1.924   1.960   1.960
  2.070   2.078   2.078   2.115   2.115   2.159   2.166   2.166
  2.232   2.286   2.286   2.468   2.468   2.519   2.538   2.538
  2.607   2.619   2.750   2.750   2.798   2.798   2.806   2.931
  2.936   2.936   2.958   3.028   3.032   3.032   3.124   3.156
  3.156   3.183   3.194   3.268   3.268   3.345   3.345   3.420
  3.420   3.486   3.515   3.572   3.572   3.692   3.796   3.796
  3.993   4.041   4.042   4.166   4.166   4.245   4.261   4.333
  4.333   5.273   5.535   5.535   6.316   6.316   6.319   6.373
  6.373   6.375   6.380   6.491   6.491   6.547   6.570   6.570
  6.658   6.658   6.712   6.875   7.061   7.061   7.095   7.095
  7.111   7.673   7.731   7.731   8.058   8.066   8.074   8.074
  8.095   8.095   8.184   8.190   8.190   8.477   8.477   8.561
  8.577   8.624   8.624   8.660   8.883   8.883   8.937   8.971
  8.971   8.983   9.233   9.233   9.290   9.434   9.434   9.790
 10.352  10.352  14.550  14.722  14.722  15.950  16.164  16.164
 16.214  16.569  16.569  16.573  24.116  26.954  26.974  26.974
 27.599  27.599  40.197  40.330  40.330  46.449  46.449  46.452
 46.455  46.455  46.456  46.457  46.457  46.460  56.619  56.724
 56.724  56.748  56.900  56.900  56.908  69.083  79.756  79.769
 79.771  80.205  80.206 124.919 125.025 125.025 330.253
 --------------------------------------------------------------
 
          Ground-State Mulliken Net Atomic Charges

     Atom                 Charge (a.u.)
  ----------------------------------------
      1 P                     0.123809
      2 H                    -0.041284
      3 H                    -0.041263
      4 H                    -0.041263
  ----------------------------------------
  Sum of atomic charges =    -0.000000

 -----------------------------------------------------------------
                    Cartesian Multipole Moments
 -----------------------------------------------------------------
    Charge (ESU x 10^10)
                -0.0000
    Dipole Moment (Debye)
         X       0.0000      Y       0.0000      Z      -0.5494
       Tot       0.5494
    Quadrupole Moments (Debye-Ang)
        XX     -14.9501     XY       0.0000     YY     -14.9500
        XZ      -0.0000     YZ      -0.0000     ZZ     -16.9827
    Octopole Moments (Debye-Ang^2)
       XXX       0.0000    XXY       0.0215    XYY       0.0000
       YYY      -0.0214    XXZ       1.7044    XYZ      -0.0000
       YYZ       1.7044    XZZ       0.0000    YZZ       0.0001
       ZZZ       5.6200
    Hexadecapole Moments (Debye-Ang^3)
      XXXX     -32.3573   XXXY       0.0000   XXYY     -10.7859
      XYYY      -0.0000   YYYY     -32.3581   XXXZ      -0.0000
      XXYZ      -0.6173   XYYZ      -0.0000   YYYZ       0.6171
      XXZZ     -11.4605   XYZZ       0.0000   YYZZ     -11.4606
      XZZZ      -0.0000   YZZZ      -0.0001   ZZZZ     -38.6003
 -----------------------------------------------------------------
Archival summary:
1\1\n0042.mhg0\SP\ProcedureUnspecified\BasisUnspecified\13\yhljason\FriNov612:52:302020FriNov612:52:302020\0\\#,ProcedureUnspecified,BasisUnspecified,\\0,1\P\H,1,1.42097\H,1,1.42097,2,93.3007\H,1,1.421,2,93.3031,3,-93.5051,0\\\@

 Total job time:  311.40s(wall), 4921.53s(cpu) 
 Fri Nov  6 12:52:30 2020

        *************************************************************
        *                                                           *
        *  Thank you very much for using Q-Chem.  Have a nice day.  *
        *                                                           *
        *************************************************************


 
User input: 3 of 6 
 
Q-Chem Developer Version!
                  Welcome to Q-Chem
     A Quantum Leap Into The Future Of Chemistry


 Q-Chem 5.1, Q-Chem, Inc., Pleasanton, CA (2018)

 Yihan Shao,  Zhengting Gan,  E. Epifanovsky,  A. T. B. Gilbert,  M. Wormit,  
 J. Kussmann,  A. W. Lange,  A. Behn,  Jia Deng,  Xintian Feng,  D. Ghosh,  
 M. Goldey,  P. R. Horn,  L. D. Jacobson,  I. Kaliman,  T. Kus,  A. Landau,  
 Jie Liu,  E. I. Proynov,  R. M. Richard,  R. P. Steele,  E. J. Sundstrom,  
 H. L. Woodcock III,  P. M. Zimmerman,  D. Zuev,  B. Albrecht,  E. Alguire,  
 S. A. Baeppler,  D. Barton,  Z. Benda,  Y. A. Bernard,  E. J. Berquist,  
 K. B. Bravaya,  H. Burton,  D. Casanova,  Chun-Min Chang,  Yunqing Chen,  
 A. Chien,  K. D. Closser,  M. P. Coons,  S. Coriani,  S. Dasgupta,  
 A. L. Dempwolff,  M. Diedenhofen,  Hainam Do,  R. G. Edgar,  Po-Tung Fang,  
 S. Faraji,  S. Fatehi,  Qingguo Feng,  K. D. Fenk,  J. Fosso-Tande,  
 Qinghui Ge,  A. Ghysels,  G. Gidofalvi,  J. Gomes,  J. Gonthier,  A. Gunina,  
 D. Hait,  M. W. D. Hanson-Heine,  P. H. P. Harbach,  A. W. Hauser,  
 J. E. Herr,  E. G. Hohenstein,  Z. C. Holden,  Kerwin Hui,  B. C. Huynh,  
 T.-C. Jagau,  Hyunjun Ji,  B. Kaduk,  K. Khistyaev,  Jaehoon Kim,  
 P. Klunzinger,  K. Koh,  D. Kosenkov,  L. Koulias,  T. Kowalczyk,  
 C. M. Krauter,  A. Kunitsa,  Ka Un Lao,  A. Laurent,  K. V. Lawler,  
 Joonho Lee,  D. Lefrancois,  S. Lehtola,  D. S. Levine,  Yi-Pei Li,  
 You-Sheng Lin,  Fenglai Liu,  E. Livshits,  A. Luenser,  P. Manohar,  
 E. Mansoor,  S. F. Manzer,  Shan-Ping Mao,  Yuezhi Mao,  N. Mardirossian,  
 A. V. Marenich,  T. Markovich,  L. A. Martinez-Martinez,  S. A. Maurer,  
 N. J. Mayhall,  S. C. McKenzie,  J.-M. Mewes,  A. F. Morrison,  
 J. W. Mullinax,  K. Nanda,  T. S. Nguyen-Beck,  R. Olivares-Amaya,  
 J. A. Parkhill,  T. M. Perrine,  F. Plasser,  P. Pokhilko,  S. Prager,  
 A. Prociuk,  E. Ramos,  D. R. Rehn,  F. Rob,  M. Schneider,  N. Sergueev,  
 S. M. Sharada,  S. Sharma,  D. W. Small,  T. Stauch,  T. Stein,  
 Yu-Chuan Su,  A. J. W. Thom,  A. Tkatchenko,  T. Tsuchimochi,  N. M. Tubman,  
 L. Vogt,  M. L. Vidal,  O. Vydrov,  M. A. Watson,  J. Wenzel,  
 M. de Wergifosse,  T. A. Wesolowski,  A. White,  J. Witte,  A. Yamada,  
 Jun Yang,  K. Yao,  S. Yeganeh,  S. R. Yost,  Zhi-Qiang You,  A. Zech,  
 Igor Ying Zhang,  Xing Zhang,  Yan Zhao,  Ying Zhu,  B. R. Brooks,  
 G. K. L. Chan,  C. J. Cramer,  M. S. Gordon,  W. J. Hehre,  A. Klamt,  
 M. W. Schmidt,  C. D. Sherrill,  D. G. Truhlar,  A. Aspuru-Guzik,  R. Baer,  
 A. T. Bell,  N. A. Besley,  Jeng-Da Chai,  A. E. DePrince, III,  
 R. A. DiStasio Jr.,  A. Dreuw,  B. D. Dunietz,  T. R. Furlani,  
 Chao-Ping Hsu,  Yousung Jung,  Jing Kong,  D. S. Lambrecht,  WanZhen Liang,  
 C. Ochsenfeld,  V. A. Rassolov,  L. V. Slipchenko,  J. E. Subotnik,  
 T. Van Voorhis,  J. M. Herbert,  A. I. Krylov,  P. M. W. Gill,  M. Head-Gordon

 Contributors to earlier versions of Q-Chem not listed above: 
 R. D. Adamson,  B. Austin,  J. Baker,  G. J. O. Beran,  K. Brandhorst,  
 S. T. Brown,  E. F. C. Byrd,  A. K. Chakraborty,  C.-L. Cheng,  
 Siu Hung Chien,  D. M. Chipman,  D. L. Crittenden,  H. Dachsel,  
 R. J. Doerksen,  A. D. Dutoi,  L. Fusti-Molnar,  W. A. Goddard III,  
 A. Golubeva-Zadorozhnaya,  S. R. Gwaltney,  G. Hawkins,  A. Heyden,  
 S. Hirata,  G. Kedziora,  F. J. Keil,  C. Kelley,  Jihan Kim,  R. A. King,  
 R. Z. Khaliullin,  P. P. Korambath,  W. Kurlancheek,  A. M. Lee,  M. S. Lee,  
 S. V. Levchenko,  Ching Yeh Lin,  D. Liotard,  R. C. Lochan,  I. Lotan,  
 P. E. Maslen,  N. Nair,  D. P. O'Neill,  D. Neuhauser,  E. Neuscamman,  
 C. M. Oana,  R. Olson,  B. Peters,  R. Peverati,  P. A. Pieniazek,  
 Y. M. Rhee,  J. Ritchie,  M. A. Rohrdanz,  E. Rosta,  N. J. Russ,  
 H. F. Schaefer III,  N. E. Schultz,  N. Shenvi,  A. C. Simmonett,  A. Sodt,  
 D. Stuck,  K. S. Thanthiriwatte,  V. Vanovschi,  Tao Wang,  A. Warshel,  
 C. F. Williams,  Q. Wu,  X. Xu,  W. Zhang

 Please cite Q-Chem as follows:
 Y. Shao et al., Mol. Phys. 113, 184-215 (2015)
 DOI: 10.1080/00268976.2014.952696

 Q-Chem 5.1.1 for Intel X86 EM64T Linux

 Parts of Q-Chem use Armadillo 8.300.2 (Tropical Shenanigans).
 http://arma.sourceforge.net/

 Q-Chem begins on Fri Nov  6 12:52:30 2020  

Host: n0042.mhg0
0

     Scratch files written to /local/scratch/users/yhljason/PH3_wB97M2_aug-cc-pcVQZ.inp20201106122541//
The previous job contains 0 fragments, simply inherited here
Input Ideriv = 2
Curr. Ideriv = -1
Max.  Ideriv = 2
Input Ideriv = 1
Curr. Ideriv = 2
Max.  Ideriv = 1

Checking the input file for inconsistencies... 	...done.

--------------------------------------------------------------
User input:
--------------------------------------------------------------
$molecule
read
$end

$rem

jobtype sp
method wb97m-v
xc_grid 000099000590
basis aug-cc-pcVQZ
max_scf_cycles 200
thresh 14
scf_convergence 8
mem_total 128000
cc_memory 96000
cc_backend xm
mem_static 1500
symmetry false
sym_ignore true
scf_guess read
unrestricted false
scf_algorithm gdm
n_frozen_core 0
gen_scfman true
$end

$multipole_field
Z 0.0001
$end



--------------------------------------------------------------
 ----------------------------------------------------------------
             Standard Nuclear Orientation (Angstroms)
    I     Atom           X                Y                Z
 ----------------------------------------------------------------
    1      P       0.0000000000     0.0000000000     0.0000000000
    2      H       0.0000000000    -1.1932000000    -0.7717000000
    3      H       1.0333000000     0.5966000000    -0.7717000000
    4      H      -1.0333000000     0.5966000000    -0.7717000000
 ----------------------------------------------------------------
 Nuclear Repulsion Energy =    17.5262807188 hartrees
 There are        9 alpha and        9 beta electrons
 Requested basis set is aug-cc-pCVQZ
 There are 76 shells and 272 basis functions

 Total QAlloc Memory Limit 128000 MB
 Mega-Array Size      1467 MB
 MEM_STATIC part      1500 MB

                       Distance Matrix (Angstroms)
             P (  1)   H (  2)   H (  3)
   H (  2)  1.421002
   H (  3)  1.420972  2.066662
   H (  4)  1.420972  2.066662  2.066600
 
 Applying Cartesian multipole field
    Component          Value
    ---------          -----
     (0,0,1)        1.00000E-04
 Nucleus-field energy     =    -0.0004374905 hartrees
 A cutoff of  1.0D-14 yielded   2926 shell pairs
 There are     37690 function pairs (     58743 Cartesian)
 
 -------------------------------------------------------
 OpenMP Integral Computing Module                       
 Release: version 1.0, May 2013, Q-Chem Inc. Pittsburgh 
 -------------------------------------------------------
 Integral Job Info:
 Integral job number is                      11
 Integral operator is                         1
 short-range coefficients              15000000
 long-range coefficients              100000000
 Omega coefficients                         300
 if combine SR and LR in K                    1
 Integral screening is                        0
 Integral computing path is                   2
 max size of driver memory is           3200000
 size of driver memory is               1704330
 size of scratch memory is             28840424
 max col of scratch BK array              50625
 max len of scratch array in speh3         2114
 max len of scratch index in speh4           50
 max int batch size is                      520
 min int batch size is                       52
 fixed nKL is                                21
 max L of basis functions is                  4
 order of int derivative is                   0
 number of shells is                         76
 number of basis is                         339
 number of cartesian basis is               339
 number of contracted shell pairs          2926
 number of primitive shell pairs           8738
 maxK2 (contraction) of shell pair          169
 max number of K2 of shell pair               1
 max number of CS2 of shell pair            364
 max number of PS2 of shell pair           1014
 mem total for path MDJ                  695312
 -------------------------------------------------------
 Smallest overlap matrix eigenvalue = 2.72E-05
 Guess MOs from SCF MO coefficient file

 -----------------------------------------------------------------------
  General SCF calculation program by
  Eric Jon Sundstrom, Paul Horn, Yuezhi Mao, Dmitri Zuev, Alec White,
  David Stuck, Shaama M.S., Shane Yost, Joonho Lee, David Small,
  Daniel Levine, Susi Lehtola, Hugh Burton, Evgeny Epifanovsky
 -----------------------------------------------------------------------
 Exchange:     0.1500 Hartree-Fock + 1.0000 wB97M-V + LR-HF
 Correlation:  1.0000 wB97M-V
 Using Euler-Maclaurin-Lebedev (99,590) quadrature formula
 Nonlocal Correlation:  VV10 with C = 0.0100 and b = 6.00 and scale = 1.00000
 Grid used for NLC:  SG-1 standard quadrature
 using 16 threads for integral computing
 -------------------------------------------------------
 OpenMP Integral computing Module                
 Release: version 1.0, May 2013, Q-Chem Inc. Pittsburgh 
 -------------------------------------------------------
 using 16 threads for integral computing
 -------------------------------------------------------
 OpenMP Integral computing Module                
 Release: version 1.0, May 2013, Q-Chem Inc. Pittsburgh 
 -------------------------------------------------------
 -------------------------------------------------------
 OpenMP BLAS3 based DFT computing Module                
 Release: version 1.0, May 2013, Q-Chem Inc. Pittsburgh 
 -------------------------------------------------------
 -------------------------------------------------------
 OpenMP BLAS3 based DFT computing Module                
 Release: version 1.0, May 2013, Q-Chem Inc. Pittsburgh 
 -------------------------------------------------------
 -------------------------------------------------------
 OpenMP BLAS3 based DFT computing Module                
 Release: version 1.0, May 2013, Q-Chem Inc. Pittsburgh 
 -------------------------------------------------------
 Nonlocal correlation = 0.075359373136
 A restricted SCF calculation will be
 performed using GDM
 SCF converges when RMS gradient is below 1.0e-08
 ---------------------------------------
  Cycle       Energy        RMS Gradient
 ---------------------------------------
 Nonlocal correlation = 7.535920872541e-02
    1    -343.1267449427      1.80e-04   Normal BFGS step
 Nonlocal correlation = 7.535921424194e-02
    2    -343.1267450882      3.80e-05   Normal BFGS step
 Nonlocal correlation = 7.535923187431e-02
    3    -343.1267451045      1.03e-05   Normal BFGS step
 Nonlocal correlation = 7.535922630231e-02
    4    -343.1267451053      2.50e-06   Normal BFGS step
 Nonlocal correlation = 7.535922595167e-02
    5    -343.1267451053      6.61e-07   Normal BFGS step
 Nonlocal correlation = 7.535922612193e-02
    6    -343.1267451053      1.88e-07   Normal BFGS step
 Nonlocal correlation = 7.535922612511e-02
    7    -343.1267451053      2.53e-08   Normal BFGS step
 Nonlocal correlation = 7.535922611881e-02
    8    -343.1267451053      5.20e-09  Convergence criterion met
 ---------------------------------------
 SCF time:   CPU 1958.95s  wall 126.00s 
 SCF   energy in the final basis set =     -343.1267451053
 Total energy in the final basis set =     -343.1267451053
 
 --------------------------------------------------------------
 
                    Orbital Energies (a.u.)
 --------------------------------------------------------------
 
 Alpha MOs
 -- Occupied --
-77.363  -6.719  -4.831  -4.831  -4.827  -0.761  -0.479  -0.479
 -0.371
 -- Virtual --
  0.010   0.036   0.036   0.048   0.056   0.056   0.096   0.115
  0.115   0.120   0.120   0.123   0.183   0.183   0.205   0.211
  0.211   0.226   0.229   0.229   0.234   0.272   0.274   0.274
  0.332   0.349   0.349   0.368   0.411   0.411   0.423   0.454
  0.470   0.477   0.477   0.494   0.494   0.513   0.513   0.590
  0.616   0.620   0.624   0.624   0.662   0.662   0.684   0.721
  0.721   0.737   0.760   0.760   0.830   0.831   0.831   0.857
  0.857   0.865   0.989   0.989   1.052   1.052   1.059   1.072
  1.076   1.087   1.087   1.130   1.130   1.191   1.253   1.297
  1.297   1.302   1.310   1.310   1.316   1.352   1.352   1.393
  1.464   1.507   1.507   1.546   1.546   1.582   1.608   1.608
  1.660   1.662   1.712   1.712   1.747   1.747   1.834   1.834
  1.859   1.864   1.902   1.918   1.918   1.924   1.960   1.960
  2.071   2.079   2.079   2.115   2.115   2.159   2.166   2.166
  2.233   2.286   2.286   2.468   2.468   2.519   2.538   2.538
  2.607   2.619   2.750   2.750   2.798   2.798   2.806   2.931
  2.936   2.936   2.958   3.028   3.032   3.032   3.124   3.156
  3.156   3.183   3.194   3.269   3.269   3.345   3.345   3.420
  3.420   3.486   3.515   3.572   3.572   3.692   3.796   3.796
  3.993   4.042   4.042   4.166   4.166   4.245   4.261   4.333
  4.333   5.273   5.535   5.535   6.316   6.316   6.319   6.373
  6.373   6.375   6.380   6.491   6.491   6.547   6.570   6.570
  6.658   6.658   6.712   6.875   7.061   7.061   7.095   7.095
  7.112   7.673   7.731   7.731   8.058   8.066   8.074   8.074
  8.095   8.095   8.184   8.190   8.190   8.477   8.477   8.561
  8.577   8.624   8.625   8.661   8.883   8.883   8.937   8.971
  8.971   8.983   9.233   9.233   9.290   9.434   9.434   9.790
 10.352  10.352  14.550  14.722  14.722  15.950  16.164  16.164
 16.214  16.569  16.569  16.573  24.116  26.954  26.974  26.974
 27.599  27.599  40.197  40.330  40.330  46.449  46.449  46.452
 46.455  46.455  46.456  46.457  46.457  46.461  56.620  56.724
 56.724  56.748  56.900  56.900  56.908  69.083  79.756  79.769
 79.771  80.205  80.206 124.919 125.025 125.025 330.253
 --------------------------------------------------------------
 
          Ground-State Mulliken Net Atomic Charges

     Atom                 Charge (a.u.)
  ----------------------------------------
      1 P                     0.123721
      2 H                    -0.041252
      3 H                    -0.041235
      4 H                    -0.041235
  ----------------------------------------
  Sum of atomic charges =    -0.000000

 -----------------------------------------------------------------
                    Cartesian Multipole Moments
 -----------------------------------------------------------------
    Charge (ESU x 10^10)
                -0.0000
    Dipole Moment (Debye)
         X      -0.0000      Y       0.0000      Z      -0.5576
       Tot       0.5576
    Quadrupole Moments (Debye-Ang)
        XX     -14.9493     XY      -0.0000     YY     -14.9492
        XZ       0.0000     YZ      -0.0000     ZZ     -16.9804
    Octopole Moments (Debye-Ang^2)
       XXX      -0.0000    XXY       0.0225    XYY      -0.0000
       YYY      -0.0223    XXZ       1.6959    XYZ       0.0000
       YYZ       1.6958    XZZ      -0.0000    YZZ       0.0001
       ZZZ       5.5936
    Hexadecapole Moments (Debye-Ang^3)
      XXXX     -32.3540   XXXY      -0.0000   XXYY     -10.7848
      XYYY      -0.0000   YYYY     -32.3549   XXXZ       0.0000
      XXYZ      -0.6189   XYYZ       0.0000   YYYZ       0.6188
      XXZZ     -11.4563   XYZZ      -0.0000   YYZZ     -11.4565
      XZZZ       0.0000   YZZZ      -0.0001   ZZZZ     -38.5914
 -----------------------------------------------------------------
Archival summary:
1\1\n0042.mhg0\SP\ProcedureUnspecified\BasisUnspecified\13\yhljason\FriNov612:54:382020FriNov612:54:382020\0\\#,ProcedureUnspecified,BasisUnspecified,\\0,1\P\H,1,1.42097\H,1,1.42097,2,93.3007\H,1,1.421,2,93.3031,3,-93.5051,0\\\@

 Total job time:  127.11s(wall), 1971.25s(cpu) 
 Fri Nov  6 12:54:38 2020

        *************************************************************
        *                                                           *
        *  Thank you very much for using Q-Chem.  Have a nice day.  *
        *                                                           *
        *************************************************************


 
User input: 4 of 6 
 
Q-Chem Developer Version!
                  Welcome to Q-Chem
     A Quantum Leap Into The Future Of Chemistry


 Q-Chem 5.1, Q-Chem, Inc., Pleasanton, CA (2018)

 Yihan Shao,  Zhengting Gan,  E. Epifanovsky,  A. T. B. Gilbert,  M. Wormit,  
 J. Kussmann,  A. W. Lange,  A. Behn,  Jia Deng,  Xintian Feng,  D. Ghosh,  
 M. Goldey,  P. R. Horn,  L. D. Jacobson,  I. Kaliman,  T. Kus,  A. Landau,  
 Jie Liu,  E. I. Proynov,  R. M. Richard,  R. P. Steele,  E. J. Sundstrom,  
 H. L. Woodcock III,  P. M. Zimmerman,  D. Zuev,  B. Albrecht,  E. Alguire,  
 S. A. Baeppler,  D. Barton,  Z. Benda,  Y. A. Bernard,  E. J. Berquist,  
 K. B. Bravaya,  H. Burton,  D. Casanova,  Chun-Min Chang,  Yunqing Chen,  
 A. Chien,  K. D. Closser,  M. P. Coons,  S. Coriani,  S. Dasgupta,  
 A. L. Dempwolff,  M. Diedenhofen,  Hainam Do,  R. G. Edgar,  Po-Tung Fang,  
 S. Faraji,  S. Fatehi,  Qingguo Feng,  K. D. Fenk,  J. Fosso-Tande,  
 Qinghui Ge,  A. Ghysels,  G. Gidofalvi,  J. Gomes,  J. Gonthier,  A. Gunina,  
 D. Hait,  M. W. D. Hanson-Heine,  P. H. P. Harbach,  A. W. Hauser,  
 J. E. Herr,  E. G. Hohenstein,  Z. C. Holden,  Kerwin Hui,  B. C. Huynh,  
 T.-C. Jagau,  Hyunjun Ji,  B. Kaduk,  K. Khistyaev,  Jaehoon Kim,  
 P. Klunzinger,  K. Koh,  D. Kosenkov,  L. Koulias,  T. Kowalczyk,  
 C. M. Krauter,  A. Kunitsa,  Ka Un Lao,  A. Laurent,  K. V. Lawler,  
 Joonho Lee,  D. Lefrancois,  S. Lehtola,  D. S. Levine,  Yi-Pei Li,  
 You-Sheng Lin,  Fenglai Liu,  E. Livshits,  A. Luenser,  P. Manohar,  
 E. Mansoor,  S. F. Manzer,  Shan-Ping Mao,  Yuezhi Mao,  N. Mardirossian,  
 A. V. Marenich,  T. Markovich,  L. A. Martinez-Martinez,  S. A. Maurer,  
 N. J. Mayhall,  S. C. McKenzie,  J.-M. Mewes,  A. F. Morrison,  
 J. W. Mullinax,  K. Nanda,  T. S. Nguyen-Beck,  R. Olivares-Amaya,  
 J. A. Parkhill,  T. M. Perrine,  F. Plasser,  P. Pokhilko,  S. Prager,  
 A. Prociuk,  E. Ramos,  D. R. Rehn,  F. Rob,  M. Schneider,  N. Sergueev,  
 S. M. Sharada,  S. Sharma,  D. W. Small,  T. Stauch,  T. Stein,  
 Yu-Chuan Su,  A. J. W. Thom,  A. Tkatchenko,  T. Tsuchimochi,  N. M. Tubman,  
 L. Vogt,  M. L. Vidal,  O. Vydrov,  M. A. Watson,  J. Wenzel,  
 M. de Wergifosse,  T. A. Wesolowski,  A. White,  J. Witte,  A. Yamada,  
 Jun Yang,  K. Yao,  S. Yeganeh,  S. R. Yost,  Zhi-Qiang You,  A. Zech,  
 Igor Ying Zhang,  Xing Zhang,  Yan Zhao,  Ying Zhu,  B. R. Brooks,  
 G. K. L. Chan,  C. J. Cramer,  M. S. Gordon,  W. J. Hehre,  A. Klamt,  
 M. W. Schmidt,  C. D. Sherrill,  D. G. Truhlar,  A. Aspuru-Guzik,  R. Baer,  
 A. T. Bell,  N. A. Besley,  Jeng-Da Chai,  A. E. DePrince, III,  
 R. A. DiStasio Jr.,  A. Dreuw,  B. D. Dunietz,  T. R. Furlani,  
 Chao-Ping Hsu,  Yousung Jung,  Jing Kong,  D. S. Lambrecht,  WanZhen Liang,  
 C. Ochsenfeld,  V. A. Rassolov,  L. V. Slipchenko,  J. E. Subotnik,  
 T. Van Voorhis,  J. M. Herbert,  A. I. Krylov,  P. M. W. Gill,  M. Head-Gordon

 Contributors to earlier versions of Q-Chem not listed above: 
 R. D. Adamson,  B. Austin,  J. Baker,  G. J. O. Beran,  K. Brandhorst,  
 S. T. Brown,  E. F. C. Byrd,  A. K. Chakraborty,  C.-L. Cheng,  
 Siu Hung Chien,  D. M. Chipman,  D. L. Crittenden,  H. Dachsel,  
 R. J. Doerksen,  A. D. Dutoi,  L. Fusti-Molnar,  W. A. Goddard III,  
 A. Golubeva-Zadorozhnaya,  S. R. Gwaltney,  G. Hawkins,  A. Heyden,  
 S. Hirata,  G. Kedziora,  F. J. Keil,  C. Kelley,  Jihan Kim,  R. A. King,  
 R. Z. Khaliullin,  P. P. Korambath,  W. Kurlancheek,  A. M. Lee,  M. S. Lee,  
 S. V. Levchenko,  Ching Yeh Lin,  D. Liotard,  R. C. Lochan,  I. Lotan,  
 P. E. Maslen,  N. Nair,  D. P. O'Neill,  D. Neuhauser,  E. Neuscamman,  
 C. M. Oana,  R. Olson,  B. Peters,  R. Peverati,  P. A. Pieniazek,  
 Y. M. Rhee,  J. Ritchie,  M. A. Rohrdanz,  E. Rosta,  N. J. Russ,  
 H. F. Schaefer III,  N. E. Schultz,  N. Shenvi,  A. C. Simmonett,  A. Sodt,  
 D. Stuck,  K. S. Thanthiriwatte,  V. Vanovschi,  Tao Wang,  A. Warshel,  
 C. F. Williams,  Q. Wu,  X. Xu,  W. Zhang

 Please cite Q-Chem as follows:
 Y. Shao et al., Mol. Phys. 113, 184-215 (2015)
 DOI: 10.1080/00268976.2014.952696

 Q-Chem 5.1.1 for Intel X86 EM64T Linux

 Parts of Q-Chem use Armadillo 8.300.2 (Tropical Shenanigans).
 http://arma.sourceforge.net/

 Q-Chem begins on Fri Nov  6 12:54:38 2020  

Host: n0042.mhg0
0

     Scratch files written to /local/scratch/users/yhljason/PH3_wB97M2_aug-cc-pcVQZ.inp20201106122541//
The previous job contains 0 fragments, simply inherited here
Input Ideriv = 0
Curr. Ideriv = -1
Max.  Ideriv = 0
Analytic post-HF gradients are not available with non-HF exchange
Input Ideriv = 0
Curr. Ideriv = 0
Max.  Ideriv = 0

Checking the input file for inconsistencies... 	...done.

--------------------------------------------------------------
User input:
--------------------------------------------------------------
$molecule
read
$end

$rem

jobtype sp
exchange wb97m(2)
xc_grid 000099000590
basis aug-cc-pcVQZ
max_scf_cycles 200
thresh 14
scf_convergence 8
mem_total 128000
cc_memory 96000
cc_backend xm
mem_static 1500
symmetry false
sym_ignore true
scf_guess read
unrestricted false
scf_algorithm gdm
n_frozen_core 0
$end

$multipole_field
Z 0.0001
$end



--------------------------------------------------------------
 ----------------------------------------------------------------
             Standard Nuclear Orientation (Angstroms)
    I     Atom           X                Y                Z
 ----------------------------------------------------------------
    1      P       0.0000000000     0.0000000000     0.0000000000
    2      H       0.0000000000    -1.1932000000    -0.7717000000
    3      H       1.0333000000     0.5966000000    -0.7717000000
    4      H      -1.0333000000     0.5966000000    -0.7717000000
 ----------------------------------------------------------------
 Nuclear Repulsion Energy =    17.5262807188 hartrees
 There are        9 alpha and        9 beta electrons
 Requested basis set is aug-cc-pCVQZ
 There are 76 shells and 272 basis functions

 Total QAlloc Memory Limit 128000 MB
 Mega-Array Size      1467 MB
 MEM_STATIC part      1500 MB

                       Distance Matrix (Angstroms)
             P (  1)   H (  2)   H (  3)
   H (  2)  1.421002
   H (  3)  1.420972  2.066662
   H (  4)  1.420972  2.066662  2.066600
 
 Applying Cartesian multipole field
    Component          Value
    ---------          -----
     (0,0,1)        1.00000E-04
 Nucleus-field energy     =    -0.0004374905 hartrees
 A cutoff of  1.0D-14 yielded   2926 shell pairs
 There are     37690 function pairs (     58743 Cartesian)
 
 -------------------------------------------------------
 OpenMP Integral Computing Module                       
 Release: version 1.0, May 2013, Q-Chem Inc. Pittsburgh 
 -------------------------------------------------------
 Integral Job Info:
 Integral job number is                      11
 Integral operator is                         1
 short-range coefficients              15000000
 long-range coefficients              100000000
 Omega coefficients                         300
 if combine SR and LR in K                    1
 Integral screening is                        0
 Integral computing path is                   2
 max size of driver memory is           3200000
 size of driver memory is               1704330
 size of scratch memory is             28840424
 max col of scratch BK array              50625
 max len of scratch array in speh3         2114
 max len of scratch index in speh4           50
 max int batch size is                      520
 min int batch size is                       52
 fixed nKL is                                21
 max L of basis functions is                  4
 order of int derivative is                   0
 number of shells is                         76
 number of basis is                         339
 number of cartesian basis is               339
 number of contracted shell pairs          2926
 number of primitive shell pairs           8738
 maxK2 (contraction) of shell pair          169
 max number of K2 of shell pair               1
 max number of CS2 of shell pair            364
 max number of PS2 of shell pair           1014
 mem total for path MDJ                  695312
 -------------------------------------------------------
 Smallest overlap matrix eigenvalue = 2.72E-05
 Guess MOs from SCF MO coefficient file
 Reading MOs from coefficient file
 Reading MOs from coefficient file
 Long-range K will be added via erf
 Coulomb attenuation parameter = 0.3 bohr**(-1)
 A restricted hybrid HF-DFT SCF calculation will be
 performed using Geometric Direct Minimization
 Exchange:     0.1500 Hartree-Fock + 1.0000 wB97M-V + LR-HF
 Correlation:  1.0000 wB97M-V
 Using Euler-Maclaurin-Lebedev (99,590) quadrature formula
 Nonlocal Correlation:  VV10 with C = 0.0100 and b = 6.00 and scale = 1.00000
 Grid used for NLC:  SG-1 standard quadrature
 SCF converges when RMS gradient is below 1.0E-08
Using Q-Chem read-in guess as SCF_GUESS READ specified.

 using 16 threads for integral computing
 -------------------------------------------------------
 OpenMP Integral computing Module                
 Release: version 1.0, May 2013, Q-Chem Inc. Pittsburgh 
 -------------------------------------------------------
 using 16 threads for integral computing
 -------------------------------------------------------
 OpenMP Integral computing Module                
 Release: version 1.0, May 2013, Q-Chem Inc. Pittsburgh 
 -------------------------------------------------------
TIMEINFO->: J/JK contribution 183.86 sec.
 -------------------------------------------------------
 OpenMP BLAS3 based DFT computing Module                
 Release: version 1.0, May 2013, Q-Chem Inc. Pittsburgh 
 -------------------------------------------------------
 -------------------------------------------------------
 OpenMP BLAS3 based DFT computing Module                
 Release: version 1.0, May 2013, Q-Chem Inc. Pittsburgh 
 -------------------------------------------------------
 -------------------------------------------------------
 OpenMP BLAS3 based DFT computing Module                
 Release: version 1.0, May 2013, Q-Chem Inc. Pittsburgh 
 -------------------------------------------------------
 ---------------------------------------
  Cycle       Energy        RMS Gradient
 ---------------------------------------
    1    -343.1267451053      1.86E-10 Normal BFGS step
TIMEINFO->: J/JK contribution 185.48 sec.
   GDM::WARNING energy changes are now smaller than effective accuracy.
   GDM::        calculation will continue, but THRESH should be increased
   GDM::        or SCF_CONVERGENCE decreased.
   GDM::        effective_thresh =   9.000000000000000E-011
 Nonlocal correlation =     0.0242786455
    2    -343.1267451053      5.84E-11 Convergence criterion met
 ---------------------------------------
 wB97M-V orbitals are now ready for the wB97M(2) calculation.
 wB97M(2) energy = Exch (0.62194 SRHF + 1.0 LRHF + wB97M(2)_EXCH) + 
               Corr (wB97M(2)_CORR + 0.34096 MP2 + 0.65904 VV10(b=10))
 SCF time:  CPU 764.56 s  wall 48.64 s
 SCF   energy in the final basis set = -343.05702012
 Total energy in the final basis set = -343.05702012
 
 Components of the MP2 correlation energy:
        aaaa  correlation energy =        -0.0243964028 au
        abab  correlation energy =        -0.1648817689 au
        bbbb  correlation energy =        -0.0243964028 au
        non-Brillouin singles    =        -0.0000000000 au

 Total  MP2   correlation energy =                    -0.21367457 au
        MP2         total energy =                  -343.27069469 au
 
 --------------------------------------------------------------
 
                    Orbital Energies (a.u.)
 --------------------------------------------------------------
 
 Alpha MOs
 -- Occupied --
-77.363  -6.719  -4.831  -4.831  -4.827  -0.761  -0.479  -0.479
 -0.371
 -- Virtual --
  0.010   0.036   0.036   0.048   0.056   0.056   0.096   0.115
  0.115   0.120   0.120   0.123   0.183   0.183   0.205   0.211
  0.211   0.226   0.229   0.229   0.234   0.272   0.274   0.274
  0.332   0.349   0.349   0.368   0.411   0.411   0.423   0.454
  0.470   0.477   0.477   0.494   0.494   0.513   0.513   0.590
  0.616   0.620   0.624   0.624   0.662   0.662   0.684   0.721
  0.721   0.737   0.760   0.760   0.830   0.831   0.831   0.857
  0.857   0.865   0.989   0.989   1.052   1.052   1.059   1.072
  1.076   1.087   1.087   1.130   1.130   1.191   1.253   1.297
  1.297   1.302   1.310   1.310   1.316   1.352   1.352   1.393
  1.464   1.507   1.507   1.546   1.546   1.582   1.608   1.608
  1.660   1.662   1.712   1.712   1.747   1.747   1.834   1.834
  1.859   1.864   1.902   1.918   1.918   1.924   1.960   1.960
  2.071   2.079   2.079   2.115   2.115   2.159   2.166   2.166
  2.233   2.286   2.286   2.468   2.468   2.519   2.538   2.538
  2.607   2.619   2.750   2.750   2.798   2.798   2.806   2.931
  2.936   2.936   2.958   3.028   3.032   3.032   3.124   3.156
  3.156   3.183   3.194   3.269   3.269   3.345   3.345   3.420
  3.420   3.486   3.515   3.572   3.572   3.692   3.796   3.796
  3.993   4.042   4.042   4.166   4.166   4.245   4.261   4.333
  4.333   5.273   5.535   5.535   6.316   6.316   6.319   6.373
  6.373   6.375   6.380   6.491   6.491   6.547   6.570   6.570
  6.658   6.658   6.712   6.875   7.061   7.061   7.095   7.095
  7.112   7.673   7.731   7.731   8.058   8.066   8.074   8.074
  8.095   8.095   8.184   8.190   8.190   8.477   8.477   8.561
  8.577   8.624   8.625   8.661   8.883   8.883   8.937   8.971
  8.971   8.983   9.233   9.233   9.290   9.434   9.434   9.790
 10.352  10.352  14.550  14.722  14.722  15.950  16.164  16.164
 16.214  16.569  16.569  16.573  24.116  26.954  26.974  26.974
 27.599  27.599  40.197  40.330  40.330  46.449  46.449  46.452
 46.455  46.455  46.456  46.457  46.457  46.461  56.620  56.724
 56.724  56.748  56.900  56.900  56.908  69.083  79.756  79.769
 79.771  80.205  80.206 124.919 125.025 125.025 330.253
 --------------------------------------------------------------
 
          Ground-State Mulliken Net Atomic Charges

     Atom                 Charge (a.u.)
  ----------------------------------------
      1 P                     0.123721
      2 H                    -0.041252
      3 H                    -0.041235
      4 H                    -0.041235
  ----------------------------------------
  Sum of atomic charges =    -0.000000

 -----------------------------------------------------------------
                    Cartesian Multipole Moments
 -----------------------------------------------------------------
    Charge (ESU x 10^10)
                -0.0000
    Dipole Moment (Debye)
         X       0.0000      Y       0.0000      Z      -0.5576
       Tot       0.5576
    Quadrupole Moments (Debye-Ang)
        XX     -14.9493     XY      -0.0000     YY     -14.9492
        XZ       0.0000     YZ      -0.0000     ZZ     -16.9804
    Octopole Moments (Debye-Ang^2)
       XXX      -0.0000    XXY       0.0225    XYY      -0.0000
       YYY      -0.0223    XXZ       1.6959    XYZ       0.0000
       YYZ       1.6958    XZZ      -0.0000    YZZ       0.0001
       ZZZ       5.5936
    Hexadecapole Moments (Debye-Ang^3)
      XXXX     -32.3540   XXXY      -0.0000   XXYY     -10.7848
      XYYY      -0.0000   YYYY     -32.3549   XXXZ      -0.0000
      XXYZ      -0.6189   XYYZ      -0.0000   YYYZ       0.6188
      XXZZ     -11.4563   XYZZ      -0.0000   YYZZ     -11.4565
      XZZZ       0.0000   YZZZ      -0.0001   ZZZZ     -38.5914
 -----------------------------------------------------------------
Archival summary:
1\1\n0042.mhg0\SP\ProcedureUnspecified\BasisUnspecified\13\yhljason\FriNov612:59:472020FriNov612:59:472020\0\\#,ProcedureUnspecified,BasisUnspecified,\\0,1\P\H,1,1.42097\H,1,1.42097,2,93.3007\H,1,1.421,2,93.3031,3,-93.5051,0\\\@

 Total job time:  309.12s(wall), 4883.39s(cpu) 
 Fri Nov  6 12:59:47 2020

        *************************************************************
        *                                                           *
        *  Thank you very much for using Q-Chem.  Have a nice day.  *
        *                                                           *
        *************************************************************


 
User input: 5 of 6 
 
Q-Chem Developer Version!
                  Welcome to Q-Chem
     A Quantum Leap Into The Future Of Chemistry


 Q-Chem 5.1, Q-Chem, Inc., Pleasanton, CA (2018)

 Yihan Shao,  Zhengting Gan,  E. Epifanovsky,  A. T. B. Gilbert,  M. Wormit,  
 J. Kussmann,  A. W. Lange,  A. Behn,  Jia Deng,  Xintian Feng,  D. Ghosh,  
 M. Goldey,  P. R. Horn,  L. D. Jacobson,  I. Kaliman,  T. Kus,  A. Landau,  
 Jie Liu,  E. I. Proynov,  R. M. Richard,  R. P. Steele,  E. J. Sundstrom,  
 H. L. Woodcock III,  P. M. Zimmerman,  D. Zuev,  B. Albrecht,  E. Alguire,  
 S. A. Baeppler,  D. Barton,  Z. Benda,  Y. A. Bernard,  E. J. Berquist,  
 K. B. Bravaya,  H. Burton,  D. Casanova,  Chun-Min Chang,  Yunqing Chen,  
 A. Chien,  K. D. Closser,  M. P. Coons,  S. Coriani,  S. Dasgupta,  
 A. L. Dempwolff,  M. Diedenhofen,  Hainam Do,  R. G. Edgar,  Po-Tung Fang,  
 S. Faraji,  S. Fatehi,  Qingguo Feng,  K. D. Fenk,  J. Fosso-Tande,  
 Qinghui Ge,  A. Ghysels,  G. Gidofalvi,  J. Gomes,  J. Gonthier,  A. Gunina,  
 D. Hait,  M. W. D. Hanson-Heine,  P. H. P. Harbach,  A. W. Hauser,  
 J. E. Herr,  E. G. Hohenstein,  Z. C. Holden,  Kerwin Hui,  B. C. Huynh,  
 T.-C. Jagau,  Hyunjun Ji,  B. Kaduk,  K. Khistyaev,  Jaehoon Kim,  
 P. Klunzinger,  K. Koh,  D. Kosenkov,  L. Koulias,  T. Kowalczyk,  
 C. M. Krauter,  A. Kunitsa,  Ka Un Lao,  A. Laurent,  K. V. Lawler,  
 Joonho Lee,  D. Lefrancois,  S. Lehtola,  D. S. Levine,  Yi-Pei Li,  
 You-Sheng Lin,  Fenglai Liu,  E. Livshits,  A. Luenser,  P. Manohar,  
 E. Mansoor,  S. F. Manzer,  Shan-Ping Mao,  Yuezhi Mao,  N. Mardirossian,  
 A. V. Marenich,  T. Markovich,  L. A. Martinez-Martinez,  S. A. Maurer,  
 N. J. Mayhall,  S. C. McKenzie,  J.-M. Mewes,  A. F. Morrison,  
 J. W. Mullinax,  K. Nanda,  T. S. Nguyen-Beck,  R. Olivares-Amaya,  
 J. A. Parkhill,  T. M. Perrine,  F. Plasser,  P. Pokhilko,  S. Prager,  
 A. Prociuk,  E. Ramos,  D. R. Rehn,  F. Rob,  M. Schneider,  N. Sergueev,  
 S. M. Sharada,  S. Sharma,  D. W. Small,  T. Stauch,  T. Stein,  
 Yu-Chuan Su,  A. J. W. Thom,  A. Tkatchenko,  T. Tsuchimochi,  N. M. Tubman,  
 L. Vogt,  M. L. Vidal,  O. Vydrov,  M. A. Watson,  J. Wenzel,  
 M. de Wergifosse,  T. A. Wesolowski,  A. White,  J. Witte,  A. Yamada,  
 Jun Yang,  K. Yao,  S. Yeganeh,  S. R. Yost,  Zhi-Qiang You,  A. Zech,  
 Igor Ying Zhang,  Xing Zhang,  Yan Zhao,  Ying Zhu,  B. R. Brooks,  
 G. K. L. Chan,  C. J. Cramer,  M. S. Gordon,  W. J. Hehre,  A. Klamt,  
 M. W. Schmidt,  C. D. Sherrill,  D. G. Truhlar,  A. Aspuru-Guzik,  R. Baer,  
 A. T. Bell,  N. A. Besley,  Jeng-Da Chai,  A. E. DePrince, III,  
 R. A. DiStasio Jr.,  A. Dreuw,  B. D. Dunietz,  T. R. Furlani,  
 Chao-Ping Hsu,  Yousung Jung,  Jing Kong,  D. S. Lambrecht,  WanZhen Liang,  
 C. Ochsenfeld,  V. A. Rassolov,  L. V. Slipchenko,  J. E. Subotnik,  
 T. Van Voorhis,  J. M. Herbert,  A. I. Krylov,  P. M. W. Gill,  M. Head-Gordon

 Contributors to earlier versions of Q-Chem not listed above: 
 R. D. Adamson,  B. Austin,  J. Baker,  G. J. O. Beran,  K. Brandhorst,  
 S. T. Brown,  E. F. C. Byrd,  A. K. Chakraborty,  C.-L. Cheng,  
 Siu Hung Chien,  D. M. Chipman,  D. L. Crittenden,  H. Dachsel,  
 R. J. Doerksen,  A. D. Dutoi,  L. Fusti-Molnar,  W. A. Goddard III,  
 A. Golubeva-Zadorozhnaya,  S. R. Gwaltney,  G. Hawkins,  A. Heyden,  
 S. Hirata,  G. Kedziora,  F. J. Keil,  C. Kelley,  Jihan Kim,  R. A. King,  
 R. Z. Khaliullin,  P. P. Korambath,  W. Kurlancheek,  A. M. Lee,  M. S. Lee,  
 S. V. Levchenko,  Ching Yeh Lin,  D. Liotard,  R. C. Lochan,  I. Lotan,  
 P. E. Maslen,  N. Nair,  D. P. O'Neill,  D. Neuhauser,  E. Neuscamman,  
 C. M. Oana,  R. Olson,  B. Peters,  R. Peverati,  P. A. Pieniazek,  
 Y. M. Rhee,  J. Ritchie,  M. A. Rohrdanz,  E. Rosta,  N. J. Russ,  
 H. F. Schaefer III,  N. E. Schultz,  N. Shenvi,  A. C. Simmonett,  A. Sodt,  
 D. Stuck,  K. S. Thanthiriwatte,  V. Vanovschi,  Tao Wang,  A. Warshel,  
 C. F. Williams,  Q. Wu,  X. Xu,  W. Zhang

 Please cite Q-Chem as follows:
 Y. Shao et al., Mol. Phys. 113, 184-215 (2015)
 DOI: 10.1080/00268976.2014.952696

 Q-Chem 5.1.1 for Intel X86 EM64T Linux

 Parts of Q-Chem use Armadillo 8.300.2 (Tropical Shenanigans).
 http://arma.sourceforge.net/

 Q-Chem begins on Fri Nov  6 12:59:47 2020  

Host: n0042.mhg0
0

     Scratch files written to /local/scratch/users/yhljason/PH3_wB97M2_aug-cc-pcVQZ.inp20201106122541//
The previous job contains 0 fragments, simply inherited here
Input Ideriv = 2
Curr. Ideriv = -1
Max.  Ideriv = 2
Input Ideriv = 1
Curr. Ideriv = 2
Max.  Ideriv = 1

Checking the input file for inconsistencies... 	...done.

--------------------------------------------------------------
User input:
--------------------------------------------------------------
$molecule
read
$end

$rem

jobtype sp
method wb97m-v
xc_grid 000099000590
basis aug-cc-pcVQZ
max_scf_cycles 200
thresh 14
scf_convergence 8
mem_total 128000
cc_memory 96000
cc_backend xm
mem_static 1500
symmetry false
sym_ignore true
scf_guess read
unrestricted false
scf_algorithm gdm
n_frozen_core 0
gen_scfman true
$end

$multipole_field
Z -0.0001
$end



--------------------------------------------------------------
 ----------------------------------------------------------------
             Standard Nuclear Orientation (Angstroms)
    I     Atom           X                Y                Z
 ----------------------------------------------------------------
    1      P       0.0000000000     0.0000000000     0.0000000000
    2      H       0.0000000000    -1.1932000000    -0.7717000000
    3      H       1.0333000000     0.5966000000    -0.7717000000
    4      H      -1.0333000000     0.5966000000    -0.7717000000
 ----------------------------------------------------------------
 Nuclear Repulsion Energy =    17.5262807188 hartrees
 There are        9 alpha and        9 beta electrons
 Requested basis set is aug-cc-pCVQZ
 There are 76 shells and 272 basis functions

 Total QAlloc Memory Limit 128000 MB
 Mega-Array Size      1467 MB
 MEM_STATIC part      1500 MB

                       Distance Matrix (Angstroms)
             P (  1)   H (  2)   H (  3)
   H (  2)  1.421002
   H (  3)  1.420972  2.066662
   H (  4)  1.420972  2.066662  2.066600
 
 Applying Cartesian multipole field
    Component          Value
    ---------          -----
     (0,0,1)       -1.00000E-04
 Nucleus-field energy     =     0.0004374905 hartrees
 A cutoff of  1.0D-14 yielded   2926 shell pairs
 There are     37690 function pairs (     58743 Cartesian)
 
 -------------------------------------------------------
 OpenMP Integral Computing Module                       
 Release: version 1.0, May 2013, Q-Chem Inc. Pittsburgh 
 -------------------------------------------------------
 Integral Job Info:
 Integral job number is                      11
 Integral operator is                         1
 short-range coefficients              15000000
 long-range coefficients              100000000
 Omega coefficients                         300
 if combine SR and LR in K                    1
 Integral screening is                        0
 Integral computing path is                   2
 max size of driver memory is           3200000
 size of driver memory is               1704330
 size of scratch memory is             28840424
 max col of scratch BK array              50625
 max len of scratch array in speh3         2114
 max len of scratch index in speh4           50
 max int batch size is                      520
 min int batch size is                       52
 fixed nKL is                                21
 max L of basis functions is                  4
 order of int derivative is                   0
 number of shells is                         76
 number of basis is                         339
 number of cartesian basis is               339
 number of contracted shell pairs          2926
 number of primitive shell pairs           8738
 maxK2 (contraction) of shell pair          169
 max number of K2 of shell pair               1
 max number of CS2 of shell pair            364
 max number of PS2 of shell pair           1014
 mem total for path MDJ                  695312
 -------------------------------------------------------
 Smallest overlap matrix eigenvalue = 2.72E-05
 Guess MOs from SCF MO coefficient file

 -----------------------------------------------------------------------
  General SCF calculation program by
  Eric Jon Sundstrom, Paul Horn, Yuezhi Mao, Dmitri Zuev, Alec White,
  David Stuck, Shaama M.S., Shane Yost, Joonho Lee, David Small,
  Daniel Levine, Susi Lehtola, Hugh Burton, Evgeny Epifanovsky
 -----------------------------------------------------------------------
 Exchange:     0.1500 Hartree-Fock + 1.0000 wB97M-V + LR-HF
 Correlation:  1.0000 wB97M-V
 Using Euler-Maclaurin-Lebedev (99,590) quadrature formula
 Nonlocal Correlation:  VV10 with C = 0.0100 and b = 6.00 and scale = 1.00000
 Grid used for NLC:  SG-1 standard quadrature
 using 16 threads for integral computing
 -------------------------------------------------------
 OpenMP Integral computing Module                
 Release: version 1.0, May 2013, Q-Chem Inc. Pittsburgh 
 -------------------------------------------------------
 using 16 threads for integral computing
 -------------------------------------------------------
 OpenMP Integral computing Module                
 Release: version 1.0, May 2013, Q-Chem Inc. Pittsburgh 
 -------------------------------------------------------
 -------------------------------------------------------
 OpenMP BLAS3 based DFT computing Module                
 Release: version 1.0, May 2013, Q-Chem Inc. Pittsburgh 
 -------------------------------------------------------
 -------------------------------------------------------
 OpenMP BLAS3 based DFT computing Module                
 Release: version 1.0, May 2013, Q-Chem Inc. Pittsburgh 
 -------------------------------------------------------
 -------------------------------------------------------
 OpenMP BLAS3 based DFT computing Module                
 Release: version 1.0, May 2013, Q-Chem Inc. Pittsburgh 
 -------------------------------------------------------
 Nonlocal correlation = 0.075359226116
 A restricted SCF calculation will be
 performed using GDM
 SCF converges when RMS gradient is below 1.0e-08
 ---------------------------------------
  Cycle       Energy        RMS Gradient
 ---------------------------------------
 Nonlocal correlation = 7.535955258968e-02
    1    -343.1267012292      3.59e-04   Normal BFGS step
 Nonlocal correlation = 7.535954143258e-02
    2    -343.1267018020      7.52e-05   Normal BFGS step
 Nonlocal correlation = 7.535950609716e-02
    3    -343.1267018671      2.05e-05   Normal BFGS step
 Nonlocal correlation = 7.535951719930e-02
    4    -343.1267018702      4.95e-06   Normal BFGS step
 Nonlocal correlation = 7.535951789877e-02
    5    -343.1267018705      1.33e-06   Normal BFGS step
[...]
  1.076   1.087   1.087   1.129   1.129   1.191   1.253   1.297
  1.297   1.302   1.310   1.310   1.316   1.352   1.352   1.393
  1.464   1.506   1.506   1.546   1.546   1.582   1.608   1.608
  1.660   1.662   1.712   1.712   1.747   1.747   1.833   1.833
  1.859   1.863   1.902   1.918   1.918   1.924   1.959   1.959
  2.070   2.078   2.078   2.115   2.115   2.159   2.166   2.166
  2.232   2.286   2.286   2.468   2.468   2.519   2.537   2.538
  2.607   2.619   2.750   2.750   2.798   2.798   2.806   2.931
  2.936   2.936   2.958   3.028   3.032   3.032   3.124   3.156
  3.156   3.183   3.194   3.268   3.268   3.345   3.345   3.420
  3.420   3.485   3.515   3.572   3.572   3.692   3.796   3.796
  3.992   4.041   4.041   4.166   4.166   4.245   4.261   4.333
  4.333   5.273   5.535   5.535   6.316   6.316   6.318   6.372
  6.372   6.375   6.380   6.491   6.491   6.547   6.570   6.570
  6.658   6.658   6.712   6.875   7.061   7.061   7.095   7.095
  7.111   7.673   7.731   7.731   8.058   8.066   8.074   8.074
  8.095   8.095   8.184   8.190   8.190   8.477   8.477   8.560
  8.577   8.624   8.624   8.660   8.883   8.883   8.936   8.971
  8.971   8.983   9.233   9.233   9.290   9.434   9.434   9.790
 10.352  10.352  14.550  14.722  14.722  15.950  16.164  16.164
 16.214  16.568  16.569  16.573  24.116  26.953  26.974  26.974
 27.599  27.599  40.197  40.330  40.330  46.448  46.449  46.452
 46.455  46.455  46.456  46.457  46.457  46.460  56.619  56.724
 56.724  56.748  56.900  56.900  56.908  69.083  79.756  79.769
 79.771  80.205  80.206 124.919 125.025 125.025 330.253
 --------------------------------------------------------------
 
          Ground-State Mulliken Net Atomic Charges

     Atom                 Charge (a.u.)
  ----------------------------------------
      1 P                     0.123906
      2 H                    -0.041316
      3 H                    -0.041295
      4 H                    -0.041295
  ----------------------------------------
  Sum of atomic charges =    -0.000000

 -----------------------------------------------------------------
                    Cartesian Multipole Moments
 -----------------------------------------------------------------
    Charge (ESU x 10^10)
                -0.0000
    Dipole Moment (Debye)
         X      -0.0000      Y       0.0000      Z      -0.5413
       Tot       0.5413
    Quadrupole Moments (Debye-Ang)
        XX     -14.9509     XY      -0.0000     YY     -14.9508
        XZ       0.0000     YZ      -0.0000     ZZ     -16.9850
    Octopole Moments (Debye-Ang^2)
       XXX      -0.0000    XXY       0.0205    XYY      -0.0000
       YYY      -0.0204    XXZ       1.7129    XYZ       0.0000
       YYZ       1.7129    XZZ      -0.0000    YZZ       0.0001
       ZZZ       5.6465
    Hexadecapole Moments (Debye-Ang^3)
      XXXX     -32.3606   XXXY      -0.0000   XXYY     -10.7870
      XYYY      -0.0000   YYYY     -32.3614   XXXZ       0.0000
      XXYZ      -0.6156   XYYZ       0.0000   YYYZ       0.6154
      XXZZ     -11.4647   XYZZ      -0.0000   YYZZ     -11.4648
      XZZZ       0.0000   YZZZ      -0.0002   ZZZZ     -38.6094
 -----------------------------------------------------------------
Archival summary:
1\1\n0042.mhg0\SP\ProcedureUnspecified\BasisUnspecified\13\yhljason\FriNov613:02:112020FriNov613:02:112020\0\\#,ProcedureUnspecified,BasisUnspecified,\\0,1\P\H,1,1.42097\H,1,1.42097,2,93.3007\H,1,1.421,2,93.3031,3,-93.5051,0\\\@

 Total job time:  143.64s(wall), 2207.62s(cpu) 
 Fri Nov  6 13:02:11 2020

        *************************************************************
        *                                                           *
        *  Thank you very much for using Q-Chem.  Have a nice day.  *
        *                                                           *
        *************************************************************


 
User input: 6 of 6 
 
Q-Chem Developer Version!
                  Welcome to Q-Chem
     A Quantum Leap Into The Future Of Chemistry


 Q-Chem 5.1, Q-Chem, Inc., Pleasanton, CA (2018)

 Yihan Shao,  Zhengting Gan,  E. Epifanovsky,  A. T. B. Gilbert,  M. Wormit,  
 J. Kussmann,  A. W. Lange,  A. Behn,  Jia Deng,  Xintian Feng,  D. Ghosh,  
 M. Goldey,  P. R. Horn,  L. D. Jacobson,  I. Kaliman,  T. Kus,  A. Landau,  
 Jie Liu,  E. I. Proynov,  R. M. Richard,  R. P. Steele,  E. J. Sundstrom,  
 H. L. Woodcock III,  P. M. Zimmerman,  D. Zuev,  B. Albrecht,  E. Alguire,  
 S. A. Baeppler,  D. Barton,  Z. Benda,  Y. A. Bernard,  E. J. Berquist,  
 K. B. Bravaya,  H. Burton,  D. Casanova,  Chun-Min Chang,  Yunqing Chen,  
 A. Chien,  K. D. Closser,  M. P. Coons,  S. Coriani,  S. Dasgupta,  
 A. L. Dempwolff,  M. Diedenhofen,  Hainam Do,  R. G. Edgar,  Po-Tung Fang,  
 S. Faraji,  S. Fatehi,  Qingguo Feng,  K. D. Fenk,  J. Fosso-Tande,  
 Qinghui Ge,  A. Ghysels,  G. Gidofalvi,  J. Gomes,  J. Gonthier,  A. Gunina,  
 D. Hait,  M. W. D. Hanson-Heine,  P. H. P. Harbach,  A. W. Hauser,  
 J. E. Herr,  E. G. Hohenstein,  Z. C. Holden,  Kerwin Hui,  B. C. Huynh,  
 T.-C. Jagau,  Hyunjun Ji,  B. Kaduk,  K. Khistyaev,  Jaehoon Kim,  
 P. Klunzinger,  K. Koh,  D. Kosenkov,  L. Koulias,  T. Kowalczyk,  
 C. M. Krauter,  A. Kunitsa,  Ka Un Lao,  A. Laurent,  K. V. Lawler,  
 Joonho Lee,  D. Lefrancois,  S. Lehtola,  D. S. Levine,  Yi-Pei Li,  
 You-Sheng Lin,  Fenglai Liu,  E. Livshits,  A. Luenser,  P. Manohar,  
 E. Mansoor,  S. F. Manzer,  Shan-Ping Mao,  Yuezhi Mao,  N. Mardirossian,  
 A. V. Marenich,  T. Markovich,  L. A. Martinez-Martinez,  S. A. Maurer,  
 N. J. Mayhall,  S. C. McKenzie,  J.-M. Mewes,  A. F. Morrison,  
 J. W. Mullinax,  K. Nanda,  T. S. Nguyen-Beck,  R. Olivares-Amaya,  
 J. A. Parkhill,  T. M. Perrine,  F. Plasser,  P. Pokhilko,  S. Prager,  
 A. Prociuk,  E. Ramos,  D. R. Rehn,  F. Rob,  M. Schneider,  N. Sergueev,  
 S. M. Sharada,  S. Sharma,  D. W. Small,  T. Stauch,  T. Stein,  
 Yu-Chuan Su,  A. J. W. Thom,  A. Tkatchenko,  T. Tsuchimochi,  N. M. Tubman,  
 L. Vogt,  M. L. Vidal,  O. Vydrov,  M. A. Watson,  J. Wenzel,  
 M. de Wergifosse,  T. A. Wesolowski,  A. White,  J. Witte,  A. Yamada,  
 Jun Yang,  K. Yao,  S. Yeganeh,  S. R. Yost,  Zhi-Qiang You,  A. Zech,  
 Igor Ying Zhang,  Xing Zhang,  Yan Zhao,  Ying Zhu,  B. R. Brooks,  
 G. K. L. Chan,  C. J. Cramer,  M. S. Gordon,  W. J. Hehre,  A. Klamt,  
 M. W. Schmidt,  C. D. Sherrill,  D. G. Truhlar,  A. Aspuru-Guzik,  R. Baer,  
 A. T. Bell,  N. A. Besley,  Jeng-Da Chai,  A. E. DePrince, III,  
 R. A. DiStasio Jr.,  A. Dreuw,  B. D. Dunietz,  T. R. Furlani,  
 Chao-Ping Hsu,  Yousung Jung,  Jing Kong,  D. S. Lambrecht,  WanZhen Liang,  
 C. Ochsenfeld,  V. A. Rassolov,  L. V. Slipchenko,  J. E. Subotnik,  
 T. Van Voorhis,  J. M. Herbert,  A. I. Krylov,  P. M. W. Gill,  M. Head-Gordon

 Contributors to earlier versions of Q-Chem not listed above: 
 R. D. Adamson,  B. Austin,  J. Baker,  G. J. O. Beran,  K. Brandhorst,  
 S. T. Brown,  E. F. C. Byrd,  A. K. Chakraborty,  C.-L. Cheng,  
 Siu Hung Chien,  D. M. Chipman,  D. L. Crittenden,  H. Dachsel,  
 R. J. Doerksen,  A. D. Dutoi,  L. Fusti-Molnar,  W. A. Goddard III,  
 A. Golubeva-Zadorozhnaya,  S. R. Gwaltney,  G. Hawkins,  A. Heyden,  
 S. Hirata,  G. Kedziora,  F. J. Keil,  C. Kelley,  Jihan Kim,  R. A. King,  
 R. Z. Khaliullin,  P. P. Korambath,  W. Kurlancheek,  A. M. Lee,  M. S. Lee,  
 S. V. Levchenko,  Ching Yeh Lin,  D. Liotard,  R. C. Lochan,  I. Lotan,  
 P. E. Maslen,  N. Nair,  D. P. O'Neill,  D. Neuhauser,  E. Neuscamman,  
 C. M. Oana,  R. Olson,  B. Peters,  R. Peverati,  P. A. Pieniazek,  
 Y. M. Rhee,  J. Ritchie,  M. A. Rohrdanz,  E. Rosta,  N. J. Russ,  
 H. F. Schaefer III,  N. E. Schultz,  N. Shenvi,  A. C. Simmonett,  A. Sodt,  
 D. Stuck,  K. S. Thanthiriwatte,  V. Vanovschi,  Tao Wang,  A. Warshel,  
 C. F. Williams,  Q. Wu,  X. Xu,  W. Zhang

 Please cite Q-Chem as follows:
 Y. Shao et al., Mol. Phys. 113, 184-215 (2015)
 DOI: 10.1080/00268976.2014.952696

 Q-Chem 5.1.1 for Intel X86 EM64T Linux

 Parts of Q-Chem use Armadillo 8.300.2 (Tropical Shenanigans).
 http://arma.sourceforge.net/

 Q-Chem begins on Fri Nov  6 13:02:11 2020  

Host: n0042.mhg0
0

     Scratch files written to /local/scratch/users/yhljason/PH3_wB97M2_aug-cc-pcVQZ.inp20201106122541//
The previous job contains 0 fragments, simply inherited here
Input Ideriv = 0
Curr. Ideriv = -1
Max.  Ideriv = 0
Analytic post-HF gradients are not available with non-HF exchange
Input Ideriv = 0
Curr. Ideriv = 0
Max.  Ideriv = 0

Checking the input file for inconsistencies... 	...done.

--------------------------------------------------------------
User input:
--------------------------------------------------------------
$molecule
read
$end

$rem

jobtype sp
exchange wb97m(2)
xc_grid 000099000590
basis aug-cc-pcVQZ
max_scf_cycles 200
thresh 14
scf_convergence 8
mem_total 128000
cc_memory 96000
cc_backend xm
mem_static 1500
symmetry false
sym_ignore true
scf_guess read
unrestricted false
scf_algorithm gdm
n_frozen_core 0
$end

$multipole_field
Z -0.0001
$end


--------------------------------------------------------------
 ----------------------------------------------------------------
             Standard Nuclear Orientation (Angstroms)
    I     Atom           X                Y                Z
 ----------------------------------------------------------------
    1      P       0.0000000000     0.0000000000     0.0000000000
    2      H       0.0000000000    -1.1932000000    -0.7717000000
    3      H       1.0333000000     0.5966000000    -0.7717000000
    4      H      -1.0333000000     0.5966000000    -0.7717000000
 ----------------------------------------------------------------
 Nuclear Repulsion Energy =    17.5262807188 hartrees
 There are        9 alpha and        9 beta electrons
 Requested basis set is aug-cc-pCVQZ
 There are 76 shells and 272 basis functions

 Total QAlloc Memory Limit 128000 MB
 Mega-Array Size      1467 MB
 MEM_STATIC part      1500 MB

                       Distance Matrix (Angstroms)
             P (  1)   H (  2)   H (  3)
   H (  2)  1.421002
   H (  3)  1.420972  2.066662
   H (  4)  1.420972  2.066662  2.066600
 
 Applying Cartesian multipole field
    Component          Value
    ---------          -----
     (0,0,1)       -1.00000E-04
 Nucleus-field energy     =     0.0004374905 hartrees
 A cutoff of  1.0D-14 yielded   2926 shell pairs
 There are     37690 function pairs (     58743 Cartesian)
 
 -------------------------------------------------------
 OpenMP Integral Computing Module                       
 Release: version 1.0, May 2013, Q-Chem Inc. Pittsburgh 
 -------------------------------------------------------
 Integral Job Info:
 Integral job number is                      11
 Integral operator is                         1
 short-range coefficients              15000000
 long-range coefficients              100000000
 Omega coefficients                         300
 if combine SR and LR in K                    1
 Integral screening is                        0
 Integral computing path is                   2
 max size of driver memory is           3200000
 size of driver memory is               1704330
 size of scratch memory is             28840424
 max col of scratch BK array              50625
 max len of scratch array in speh3         2114
 max len of scratch index in speh4           50
 max int batch size is                      520
 min int batch size is                       52
 fixed nKL is                                21
 max L of basis functions is                  4
 order of int derivative is                   0
 number of shells is                         76
 number of basis is                         339
 number of cartesian basis is               339
 number of contracted shell pairs          2926
 number of primitive shell pairs           8738
 maxK2 (contraction) of shell pair          169
 max number of K2 of shell pair               1
 max number of CS2 of shell pair            364
 max number of PS2 of shell pair           1014
 mem total for path MDJ                  695312
 -------------------------------------------------------
 Smallest overlap matrix eigenvalue = 2.72E-05
 Guess MOs from SCF MO coefficient file
 Reading MOs from coefficient file
 Reading MOs from coefficient file
 Long-range K will be added via erf
 Coulomb attenuation parameter = 0.3 bohr**(-1)
 A restricted hybrid HF-DFT SCF calculation will be
 performed using Geometric Direct Minimization
 Exchange:     0.1500 Hartree-Fock + 1.0000 wB97M-V + LR-HF
 Correlation:  1.0000 wB97M-V
 Using Euler-Maclaurin-Lebedev (99,590) quadrature formula
 Nonlocal Correlation:  VV10 with C = 0.0100 and b = 6.00 and scale = 1.00000
 Grid used for NLC:  SG-1 standard quadrature
 SCF converges when RMS gradient is below 1.0E-08
Using Q-Chem read-in guess as SCF_GUESS READ specified.

 using 16 threads for integral computing
 -------------------------------------------------------
 OpenMP Integral computing Module                
 Release: version 1.0, May 2013, Q-Chem Inc. Pittsburgh 
 -------------------------------------------------------
 using 16 threads for integral computing
 -------------------------------------------------------
 OpenMP Integral computing Module                
 Release: version 1.0, May 2013, Q-Chem Inc. Pittsburgh 
 -------------------------------------------------------
TIMEINFO->: J/JK contribution 158.58 sec.
 -------------------------------------------------------
 OpenMP BLAS3 based DFT computing Module                
 Release: version 1.0, May 2013, Q-Chem Inc. Pittsburgh 
 -------------------------------------------------------
 -------------------------------------------------------
 OpenMP BLAS3 based DFT computing Module                
 Release: version 1.0, May 2013, Q-Chem Inc. Pittsburgh 
 -------------------------------------------------------
 -------------------------------------------------------
 OpenMP BLAS3 based DFT computing Module                
 Release: version 1.0, May 2013, Q-Chem Inc. Pittsburgh 
 -------------------------------------------------------
 ---------------------------------------
  Cycle       Energy        RMS Gradient
 ---------------------------------------
    1    -343.1267018705      7.70E-11 Normal BFGS step
TIMEINFO->: J/JK contribution 182.43 sec.
 Nonlocal correlation =     0.0242787073
    2    -343.1267018705      1.87E-11 Convergence criterion met
 ---------------------------------------
 wB97M-V orbitals are now ready for the wB97M(2) calculation.
 wB97M(2) energy = Exch (0.62194 SRHF + 1.0 LRHF + wB97M(2)_EXCH) + 
               Corr (wB97M(2)_CORR + 0.34096 MP2 + 0.65904 VV10(b=10))
 SCF time:  CPU 764.19 s  wall 49.50 s
 SCF   energy in the final basis set = -343.05697554
 Total energy in the final basis set = -343.05697554
 
 Components of the MP2 correlation energy:
        aaaa  correlation energy =        -0.0243965234 au
        abab  correlation energy =        -0.1648828866 au
        bbbb  correlation energy =        -0.0243965234 au
        non-Brillouin singles    =        -0.0000000000 au

 Total  MP2   correlation energy =                    -0.21367593 au
        MP2         total energy =                  -343.27065147 au
 
 --------------------------------------------------------------
 
                    Orbital Energies (a.u.)
 --------------------------------------------------------------
 
 Alpha MOs
 -- Occupied --
-77.363  -6.719  -4.831  -4.831  -4.827  -0.761  -0.479  -0.479
 -0.371
 -- Virtual --
  0.009   0.036   0.036   0.049   0.056   0.056   0.096   0.115
  0.115   0.120   0.120   0.123   0.182   0.182   0.205   0.211
  0.211   0.226   0.229   0.229   0.234   0.272   0.274   0.274
  0.332   0.349   0.349   0.368   0.410   0.410   0.423   0.454
  0.470   0.477   0.477   0.494   0.494   0.514   0.514   0.590
  0.616   0.619   0.624   0.624   0.662   0.662   0.684   0.721
  0.721   0.737   0.760   0.760   0.830   0.831   0.831   0.857
  0.857   0.864   0.989   0.989   1.051   1.051   1.059   1.072
  1.076   1.087   1.087   1.129   1.129   1.191   1.253   1.297
  1.297   1.302   1.310   1.310   1.316   1.352   1.352   1.393
  1.464   1.506   1.506   1.546   1.546   1.582   1.608   1.608
  1.660   1.662   1.712   1.712   1.747   1.747   1.833   1.833
  1.859   1.863   1.902   1.918   1.918   1.924   1.959   1.959
  2.070   2.078   2.078   2.115   2.115   2.159   2.166   2.166
  2.232   2.286   2.286   2.468   2.468   2.519   2.537   2.538
  2.607   2.619   2.750   2.750   2.798   2.798   2.806   2.931
  2.936   2.936   2.958   3.028   3.032   3.032   3.124   3.156
  3.156   3.183   3.194   3.268   3.268   3.345   3.345   3.420
  3.420   3.485   3.515   3.572   3.572   3.692   3.796   3.796
  3.992   4.041   4.041   4.166   4.166   4.245   4.261   4.333
  4.333   5.273   5.535   5.535   6.316   6.316   6.318   6.372
  6.372   6.375   6.380   6.491   6.491   6.547   6.570   6.570
  6.658   6.658   6.712   6.875   7.061   7.061   7.095   7.095
  7.111   7.673   7.731   7.731   8.058   8.066   8.074   8.074
  8.095   8.095   8.184   8.190   8.190   8.477   8.477   8.560
  8.577   8.624   8.624   8.660   8.883   8.883   8.936   8.971
  8.971   8.983   9.233   9.233   9.290   9.434   9.434   9.790
 10.352  10.352  14.550  14.722  14.722  15.950  16.164  16.164
 16.214  16.568  16.569  16.573  24.116  26.953  26.974  26.974
 27.599  27.599  40.197  40.330  40.330  46.448  46.449  46.452
 46.455  46.455  46.456  46.457  46.457  46.460  56.619  56.724
 56.724  56.748  56.900  56.900  56.908  69.083  79.756  79.769
 79.771  80.205  80.206 124.919 125.025 125.025 330.253
 --------------------------------------------------------------
 
          Ground-State Mulliken Net Atomic Charges

     Atom                 Charge (a.u.)
  ----------------------------------------
      1 P                     0.123906
      2 H                    -0.041316
      3 H                    -0.041295
      4 H                    -0.041295
  ----------------------------------------
  Sum of atomic charges =    -0.000000

 -----------------------------------------------------------------
                    Cartesian Multipole Moments
 -----------------------------------------------------------------
    Charge (ESU x 10^10)
                -0.0000
    Dipole Moment (Debye)
         X       0.0000      Y       0.0000      Z      -0.5413
       Tot       0.5413
    Quadrupole Moments (Debye-Ang)
        XX     -14.9509     XY       0.0000     YY     -14.9508
        XZ      -0.0000     YZ      -0.0000     ZZ     -16.9850
    Octopole Moments (Debye-Ang^2)
       XXX       0.0000    XXY       0.0205    XYY      -0.0000
       YYY      -0.0204    XXZ       1.7129    XYZ      -0.0000
       YYZ       1.7129    XZZ       0.0000    YZZ       0.0001
       ZZZ       5.6465
    Hexadecapole Moments (Debye-Ang^3)
      XXXX     -32.3606   XXXY       0.0000   XXYY     -10.7870
      XYYY       0.0000   YYYY     -32.3614   XXXZ      -0.0000
      XXYZ      -0.6156   XYYZ      -0.0000   YYYZ       0.6154
      XXZZ     -11.4647   XYZZ       0.0000   YYZZ     -11.4648
      XZZZ      -0.0000   YZZZ      -0.0002   ZZZZ     -38.6094
 -----------------------------------------------------------------
Archival summary:
1\1\n0042.mhg0\SP\ProcedureUnspecified\BasisUnspecified\13\yhljason\FriNov613:07:262020FriNov613:07:262020\0\\#,ProcedureUnspecified,BasisUnspecified,\\0,1\P\H,1,1.42097\H,1,1.42097,2,93.3007\H,1,1.421,2,93.3031,3,-93.5051,0\\\@

 Total job time:  315.28s(wall), 4925.35s(cpu) 
 Fri Nov  6 13:07:26 2020

        *************************************************************
        *                                                           *
        *  Thank you very much for using Q-Chem.  Have a nice day.  *
        *                                                           *
        *************************************************************


