Q-Chem Developer Version!
                  Welcome to Q-Chem
     A Quantum Leap Into The Future Of Chemistry


 Q-Chem 5.1, Q-Chem, Inc., Pleasanton, CA (2018)

 Yihan Shao,  Zhengting Gan,  E. Epifanovsky,  A. T. B. Gilbert,  M. Wormit,  
 J. Kussmann,  A. W. Lange,  A. Behn,  Jia Deng,  Xintian Feng,  D. Ghosh,  
 M. Goldey,  P. R. Horn,  L. D. Jacobson,  I. Kaliman,  T. Kus,  A. Landau,  
 Jie Liu,  E. I. Proynov,  R. M. Richard,  R. P. Steele,  E. J. Sundstrom,  
 H. L. Woodcock III,  P. M. Zimmerman,  D. Zuev,  B. Albrecht,  E. Alguire,  
 S. A. Baeppler,  D. Barton,  Z. Benda,  Y. A. Bernard,  E. J. Berquist,  
 K. B. Bravaya,  H. Burton,  D. Casanova,  Chun-Min Chang,  Yunqing Chen,  
 A. Chien,  K. D. Closser,  M. P. Coons,  S. Coriani,  S. Dasgupta,  
 A. L. Dempwolff,  M. Diedenhofen,  Hainam Do,  R. G. Edgar,  Po-Tung Fang,  
 S. Faraji,  S. Fatehi,  Qingguo Feng,  K. D. Fenk,  J. Fosso-Tande,  
 Qinghui Ge,  A. Ghysels,  G. Gidofalvi,  J. Gomes,  J. Gonthier,  A. Gunina,  
 D. Hait,  M. W. D. Hanson-Heine,  P. H. P. Harbach,  A. W. Hauser,  
 J. E. Herr,  E. G. Hohenstein,  Z. C. Holden,  Kerwin Hui,  B. C. Huynh,  
 T.-C. Jagau,  Hyunjun Ji,  B. Kaduk,  K. Khistyaev,  Jaehoon Kim,  
 P. Klunzinger,  K. Koh,  D. Kosenkov,  L. Koulias,  T. Kowalczyk,  
 C. M. Krauter,  A. Kunitsa,  Ka Un Lao,  A. Laurent,  K. V. Lawler,  
 Joonho Lee,  D. Lefrancois,  S. Lehtola,  D. S. Levine,  Yi-Pei Li,  
 You-Sheng Lin,  Fenglai Liu,  E. Livshits,  A. Luenser,  P. Manohar,  
 E. Mansoor,  S. F. Manzer,  Shan-Ping Mao,  Yuezhi Mao,  N. Mardirossian,  
 A. V. Marenich,  T. Markovich,  L. A. Martinez-Martinez,  S. A. Maurer,  
 N. J. Mayhall,  S. C. McKenzie,  J.-M. Mewes,  A. F. Morrison,  
 J. W. Mullinax,  K. Nanda,  T. S. Nguyen-Beck,  R. Olivares-Amaya,  
 J. A. Parkhill,  T. M. Perrine,  F. Plasser,  P. Pokhilko,  S. Prager,  
 A. Prociuk,  E. Ramos,  D. R. Rehn,  F. Rob,  M. Schneider,  N. Sergueev,  
 S. M. Sharada,  S. Sharma,  D. W. Small,  T. Stauch,  T. Stein,  
 Yu-Chuan Su,  A. J. W. Thom,  A. Tkatchenko,  T. Tsuchimochi,  N. M. Tubman,  
 L. Vogt,  M. L. Vidal,  O. Vydrov,  M. A. Watson,  J. Wenzel,  
 M. de Wergifosse,  T. A. Wesolowski,  A. White,  J. Witte,  A. Yamada,  
 Jun Yang,  K. Yao,  S. Yeganeh,  S. R. Yost,  Zhi-Qiang You,  A. Zech,  
 Igor Ying Zhang,  Xing Zhang,  Yan Zhao,  Ying Zhu,  B. R. Brooks,  
 G. K. L. Chan,  C. J. Cramer,  M. S. Gordon,  W. J. Hehre,  A. Klamt,  
 M. W. Schmidt,  C. D. Sherrill,  D. G. Truhlar,  A. Aspuru-Guzik,  R. Baer,  
 A. T. Bell,  N. A. Besley,  Jeng-Da Chai,  A. E. DePrince, III,  
 R. A. DiStasio Jr.,  A. Dreuw,  B. D. Dunietz,  T. R. Furlani,  
 Chao-Ping Hsu,  Yousung Jung,  Jing Kong,  D. S. Lambrecht,  WanZhen Liang,  
 C. Ochsenfeld,  V. A. Rassolov,  L. V. Slipchenko,  J. E. Subotnik,  
 T. Van Voorhis,  J. M. Herbert,  A. I. Krylov,  P. M. W. Gill,  M. Head-Gordon

 Contributors to earlier versions of Q-Chem not listed above: 
 R. D. Adamson,  B. Austin,  J. Baker,  G. J. O. Beran,  K. Brandhorst,  
 S. T. Brown,  E. F. C. Byrd,  A. K. Chakraborty,  C.-L. Cheng,  
 Siu Hung Chien,  D. M. Chipman,  D. L. Crittenden,  H. Dachsel,  
 R. J. Doerksen,  A. D. Dutoi,  L. Fusti-Molnar,  W. A. Goddard III,  
 A. Golubeva-Zadorozhnaya,  S. R. Gwaltney,  G. Hawkins,  A. Heyden,  
 S. Hirata,  G. Kedziora,  F. J. Keil,  C. Kelley,  Jihan Kim,  R. A. King,  
 R. Z. Khaliullin,  P. P. Korambath,  W. Kurlancheek,  A. M. Lee,  M. S. Lee,  
 S. V. Levchenko,  Ching Yeh Lin,  D. Liotard,  R. C. Lochan,  I. Lotan,  
 P. E. Maslen,  N. Nair,  D. P. O'Neill,  D. Neuhauser,  E. Neuscamman,  
 C. M. Oana,  R. Olson,  B. Peters,  R. Peverati,  P. A. Pieniazek,  
 Y. M. Rhee,  J. Ritchie,  M. A. Rohrdanz,  E. Rosta,  N. J. Russ,  
 H. F. Schaefer III,  N. E. Schultz,  N. Shenvi,  A. C. Simmonett,  A. Sodt,  
 D. Stuck,  K. S. Thanthiriwatte,  V. Vanovschi,  Tao Wang,  A. Warshel,  
 C. F. Williams,  Q. Wu,  X. Xu,  W. Zhang

 Please cite Q-Chem as follows:
 Y. Shao et al., Mol. Phys. 113, 184-215 (2015)
 DOI: 10.1080/00268976.2014.952696

 Q-Chem 5.1.1 for Intel X86 EM64T Linux

 Parts of Q-Chem use Armadillo 8.300.2 (Tropical Shenanigans).
 http://arma.sourceforge.net/

 Q-Chem begins on Fri Nov  6 12:29:50 2020  

Host: n0057.mhg0
0

     Scratch files written to /local/scratch/users/yhljason/SH-_wB97M2_aug-cc-pcVQZ.inp20201106122542//
Input Ideriv = 2
Curr. Ideriv = -1
Max.  Ideriv = 2
Input Ideriv = 1
Curr. Ideriv = 2
Max.  Ideriv = 1

Checking the input file for inconsistencies... 	...done.

--------------------------------------------------------------
User input:
--------------------------------------------------------------
$molecule
-1 1
S1	0.0000	0.0000	0.0000
H2	0.0000	0.0000	1.3432
$end
$rem
jobtype sp
method wB97M-V
xc_grid 000099000590
basis aug-cc-pcVQZ
max_scf_cycles 200
thresh 14
scf_convergence 8
scf_algorithm gdm
symmetry false
sym_ignore true
unrestricted false
gen_scfman true
internal_stability_iter 15
internal_stability_davidson_iter 200
mem_total 128000
n_frozen_core 0
$end



--------------------------------------------------------------
 ----------------------------------------------------------------
             Standard Nuclear Orientation (Angstroms)
    I     Atom           X                Y                Z
 ----------------------------------------------------------------
    1      S       0.0000000000     0.0000000000     0.0000000000
    2      H       0.0000000000     0.0000000000     1.3432000000
 ----------------------------------------------------------------
 Nuclear Repulsion Energy =     6.3034807719 hartrees
 There are        9 alpha and        9 beta electrons
 Requested basis set is aug-cc-pCVQZ
 There are 48 shells and 180 basis functions

 Total QAlloc Memory Limit 128000 MB
 Mega-Array Size       188 MB
 MEM_STATIC part       192 MB

                       Distance Matrix (Angstroms)
             S (  1)
   H (  2)  1.343200
 
 A cutoff of  1.0D-14 yielded   1176 shell pairs
 There are     16684 function pairs (     27154 Cartesian)
 
 -------------------------------------------------------
 OpenMP Integral Computing Module                       
 Release: version 1.0, May 2013, Q-Chem Inc. Pittsburgh 
 -------------------------------------------------------
 Integral Job Info:
 Integral job number is                      11
 Integral operator is                         1
 short-range coefficients              15000000
 long-range coefficients              100000000
 Omega coefficients                         300
 if combine SR and LR in K                    1
 Integral screening is                        0
 Integral computing path is                   2
 max size of driver memory is           3200000
 size of driver memory is               1704330
 size of scratch memory is             28840424
 max col of scratch BK array              50625
 max len of scratch array in speh3         2114
 max len of scratch index in speh4           50
 max int batch size is                      520
 min int batch size is                       52
 fixed nKL is                                21
 max L of basis functions is                  4
 order of int derivative is                   0
 number of shells is                         48
 number of basis is                         229
 number of cartesian basis is               229
 number of contracted shell pairs          1176
 number of primitive shell pairs           5239
 maxK2 (contraction) of shell pair          169
 max number of K2 of shell pair               1
 max number of CS2 of shell pair            122
 max number of PS2 of shell pair           1014
 mem total for path MDJ                  642646
 -------------------------------------------------------
 Smallest overlap matrix eigenvalue = 2.76E-05

 Scale SEOQF with 1.000000e-01/1.000000e-01/1.000000e-01

 Standard Electronic Orientation quadrupole field applied
 Nucleus-field energy     =    -0.0000000002 hartrees
 Guess from superposition of atomic densities
 Warning:  Energy on first SCF cycle will be non-variational
 SAD guess density has 17.000000 electrons

 -----------------------------------------------------------------------
  General SCF calculation program by
  Eric Jon Sundstrom, Paul Horn, Yuezhi Mao, Dmitri Zuev, Alec White,
  David Stuck, Shaama M.S., Shane Yost, Joonho Lee, David Small,
  Daniel Levine, Susi Lehtola, Hugh Burton, Evgeny Epifanovsky
 -----------------------------------------------------------------------
 Exchange:     0.1500 Hartree-Fock + 1.0000 wB97M-V + LR-HF
 Correlation:  1.0000 wB97M-V
 Using Euler-Maclaurin-Lebedev (99,590) quadrature formula
 Nonlocal Correlation:  VV10 with C = 0.0100 and b = 6.00 and scale = 1.00000
 Grid used for NLC:  SG-1 standard quadrature
Running Object-Oriented RKS (RHF)
 Nonlocal correlation = 0.072129368379
 Nonlocal correlation = 0.075446068919
We will preform up to 15 macro iterations over saddle points until a stable solution is found
Energy prior to optimization (guess energy) = -398.757188402275
Begin Timing: Total SCF Calculation
Begin Timing: SCF Single Stationary Point Calculation
begin iterations for algorithm: GDM          
the SCF tolerance is set to 1.00e-08
 Nonlocal correlation = 7.456223578704e-02
    1    -398.7571884023      1.29e-01     00000  Normal BFGS step
 Nonlocal correlation = 7.500966983354e-02
    2    -398.7829108488      8.64e-02     00000  Normal BFGS step
 Nonlocal correlation = 7.494246801995e-02
    3    -398.8225048769      1.78e-02     00000  Normal BFGS step
 Nonlocal correlation = 7.493102242480e-02
    4    -398.8235409714      3.90e-03     00000  Normal BFGS step
 Nonlocal correlation = 7.493214092541e-02
    5    -398.8236064040      1.01e-03     00000  Normal BFGS step
 Nonlocal correlation = 7.493340684266e-02
    6    -398.8236123677      2.60e-04     00000  Normal BFGS step
 Nonlocal correlation = 7.493345343755e-02
    7    -398.8236127886      5.88e-05     00000  Normal BFGS step
 Nonlocal correlation = 7.493343137161e-02
    8    -398.8236128078      7.77e-06     00000  Normal BFGS step
 Nonlocal correlation = 7.493342375981e-02
    9    -398.8236128084      1.61e-06     00000  Normal BFGS step
 Nonlocal correlation = 7.493342268309e-02
   10    -398.8236128084      4.79e-07     00000  Normal BFGS step
 Nonlocal correlation = 7.493342272719e-02
   11    -398.8236128084      1.30e-07     00000  Normal BFGS step
 Nonlocal correlation = 7.493342279641e-02
   12    -398.8236128084      2.65e-08     00000  Normal BFGS step
 Nonlocal correlation = 7.493342277176e-02
   13    -398.8236128084      7.16e-09     00000 Convergence criterion met
Timing for Single Stationary Point: 64.00s (wall), 968.95s (cpu)
Begin Timing: Stability
===================================================
Beginning Test for Internal Stability
===================================================
generating davidson guess vectors based on koopmans excitations
computing hessian-vector products by finite difference
 Nonlocal correlation = 0.074933422701
 Nonlocal correlation = 0.074933422836
 Nonlocal correlation = 0.074933422752
 Nonlocal correlation = 0.074933422785
 Nonlocal correlation = 0.074933422772
    1      1.99e+00     00000 Davidson Iteration
computing hessian-vector products by finite difference
 Nonlocal correlation = 7.493342295068e-02
 Nonlocal correlation = 7.493342256563e-02
 Nonlocal correlation = 7.493342120697e-02
 Nonlocal correlation = 7.493342430908e-02
 Nonlocal correlation = 7.493342277176e-02
    2      6.64e-01     00000 Davidson Iteration
computing hessian-vector products by finite difference
 Nonlocal correlation = 7.493340659912e-02
 Nonlocal correlation = 7.493343895074e-02
 Nonlocal correlation = 7.493341413419e-02
 Nonlocal correlation = 7.493343141516e-02
 Nonlocal correlation = 7.493342277176e-02
    3      4.54e-02     00000 Davidson Iteration
computing hessian-vector products by finite difference
 Nonlocal correlation = 7.493336841866e-02
 Nonlocal correlation = 7.493347712659e-02
 Nonlocal correlation = 7.493342981747e-02
 Nonlocal correlation = 7.493341572838e-02
 Nonlocal correlation = 7.493342277176e-02
    4      2.30e-02     00000 Davidson Iteration
computing hessian-vector products by finite difference
 Nonlocal correlation = 7.493331442051e-02
 Nonlocal correlation = 7.493353111906e-02
 Nonlocal correlation = 7.493340254125e-02
 Nonlocal correlation = 7.493344300103e-02
 Nonlocal correlation = 7.493342277176e-02
    5      1.33e-02     00000 Davidson Iteration
computing hessian-vector products by finite difference
 Nonlocal correlation = 7.493356787522e-02
 Nonlocal correlation = 7.493327765520e-02
 Nonlocal correlation = 7.493348158677e-02
 Nonlocal correlation = 7.493336394153e-02
 Nonlocal correlation = 7.493342277176e-02
    6      5.21e-03     00000 Davidson Iteration
computing hessian-vector products by finite difference
 Nonlocal correlation = 7.493327876639e-02
 Nonlocal correlation = 7.493356676839e-02
 Nonlocal correlation = 7.493355309645e-02
 Nonlocal correlation = 7.493329244773e-02
 Nonlocal correlation = 7.493342277176e-02
    7      2.72e-03     00000 Davidson Iteration
computing hessian-vector products by finite difference
 Nonlocal correlation = 7.493336183204e-02
 Nonlocal correlation = 7.493348370936e-02
 Nonlocal correlation = 7.493357143139e-02
 Nonlocal correlation = 7.493327410995e-02
 Nonlocal correlation = 7.493342277176e-02
    8      1.26e-03     00000 Davidson Iteration
computing hessian-vector products by finite difference
 Nonlocal correlation = 7.493348151713e-02
 Nonlocal correlation = 7.493336402273e-02
 Nonlocal correlation = 7.493343574405e-02
 Nonlocal correlation = 7.493340979342e-02
 Nonlocal correlation = 7.493342277176e-02
    9      7.82e-04     00000 Davidson Converged
converged_eigenvalues
   0.3999
   0.3999
Threshold for negative eigenvalues: -1.0e-05
solution was a local minimum (stable)
===================================================
End Test for Internal Stability
===================================================
Our SCF solution is stable!
Timing for Total SCF: 276.00s (wall), 4310.34s (cpu)
 Total energy in the final basis set =     -398.8236128084
    ==================================================
              The end of Object-Oriented SCFman       
    ==================================================
 
 --------------------------------------------------------------
 
                    Orbital Energies (a.u.)
 --------------------------------------------------------------
 
 Alpha MOs
 -- Occupied --
-88.893  -7.825  -5.735  -5.729  -5.729  -0.539  -0.221  -0.081
 -0.081
 -- Virtual --
  0.130   0.195   0.210   0.210   0.259   0.319   0.351   0.351
  0.375   0.375   0.390   0.410   0.410   0.451   0.537   0.590
  0.590   0.596   0.673   0.673   0.714   0.714   0.722   0.722
  0.731   0.731   0.779   0.801   0.801   0.857   0.896   0.896
  0.929   0.942   0.942   1.088   1.301   1.351   1.351   1.465
  1.465   1.489   1.489   1.512   1.582   1.582   1.627   1.627
  1.645   1.645   1.650   1.650   1.663   1.663   1.725   1.759
  1.759   1.800   1.800   1.823   1.891   1.891   1.913   1.984
  1.984   2.128   2.128   2.247   2.388   2.388   2.533   2.746
  3.008   3.008   3.018   3.018   3.160   3.311   3.311   3.465
  3.465   3.656   3.686   3.686   3.690   3.690   3.703   3.703
  3.837   3.867   3.867   3.867   3.867   3.938   3.938   4.035
  4.035   4.303   4.637   4.637   4.731   5.331   5.331   6.170
  6.589   6.589   6.925   6.925   7.201   7.311   7.311   7.945
  8.445   8.445   8.505   8.505   8.595   9.116   9.116   9.469
  9.965   9.965  10.113  10.166  10.166  11.357  16.042  16.042
 16.758  18.552  18.552  18.560  18.560  18.759  18.759  19.138
 28.306  31.550  31.550  31.666  31.666  32.163  45.795  45.795
 46.469  55.495  55.495  55.496  55.496  55.497  55.497  55.498
 55.499  55.499  65.669  65.669  65.672  65.672  65.767  65.767
 65.913  82.251  93.446  93.448  93.533  93.533  93.860 145.193
145.193 145.674 387.833
 --------------------------------------------------------------
 
          Ground-State Mulliken Net Atomic Charges

     Atom                 Charge (a.u.)
  ----------------------------------------
      1 S                    -0.913424
      2 H                    -0.086576
  ----------------------------------------
  Sum of atomic charges =    -1.000000

 -----------------------------------------------------------------
                    Cartesian Multipole Moments
 -----------------------------------------------------------------
    Charge (ESU x 10^10)
                -4.8032
    Dipole Moment (Debye)
         X      -0.0000      Y      -0.0000      Z       0.1600
       Tot       0.1600
    Quadrupole Moments (Debye-Ang)
        XX     -22.0100     XY       0.0000     YY     -22.0100
        XZ      -0.0000     YZ      -0.0000     ZZ     -17.6292
    Octopole Moments (Debye-Ang^2)
       XXX      -0.0000    XXY      -0.0000    XYY      -0.0000
       YYY      -0.0000    XXZ      -1.5567    XYZ      -0.0000
       YYZ      -1.5567    XZZ      -0.0000    YZZ      -0.0000
       ZZZ      -4.0783
    Hexadecapole Moments (Debye-Ang^3)
      XXXX     -56.4977   XXXY       0.0000   XXYY     -18.8326
      XYYY       0.0000   YYYY     -56.4977   XXXZ      -0.0000
      XXYZ      -0.0000   XYYZ      -0.0000   YYYZ      -0.0000
      XXZZ     -17.1270   XYZZ       0.0000   YYZZ     -17.1270
      XZZZ      -0.0000   YZZZ      -0.0000   ZZZZ     -43.3337
 -----------------------------------------------------------------
Archival summary:
1\1\n0057.mhg0\SP\ProcedureUnspecified\BasisUnspecified\11(1-,1)\yhljason\FriNov612:34:342020FriNov612:34:342020\0\\#,ProcedureUnspecified,BasisUnspecified,\\-1,1\S\H,1,1.3432\\\@

 Total job time:  284.06s(wall), 4438.49s(cpu) 
 Fri Nov  6 12:34:34 2020

        *************************************************************
        *                                                           *
        *  Thank you very much for using Q-Chem.  Have a nice day.  *
        *                                                           *
        *************************************************************


 
User input: 2 of 6 
 
Q-Chem Developer Version!
                  Welcome to Q-Chem
     A Quantum Leap Into The Future Of Chemistry


 Q-Chem 5.1, Q-Chem, Inc., Pleasanton, CA (2018)

 Yihan Shao,  Zhengting Gan,  E. Epifanovsky,  A. T. B. Gilbert,  M. Wormit,  
 J. Kussmann,  A. W. Lange,  A. Behn,  Jia Deng,  Xintian Feng,  D. Ghosh,  
 M. Goldey,  P. R. Horn,  L. D. Jacobson,  I. Kaliman,  T. Kus,  A. Landau,  
 Jie Liu,  E. I. Proynov,  R. M. Richard,  R. P. Steele,  E. J. Sundstrom,  
 H. L. Woodcock III,  P. M. Zimmerman,  D. Zuev,  B. Albrecht,  E. Alguire,  
 S. A. Baeppler,  D. Barton,  Z. Benda,  Y. A. Bernard,  E. J. Berquist,  
 K. B. Bravaya,  H. Burton,  D. Casanova,  Chun-Min Chang,  Yunqing Chen,  
 A. Chien,  K. D. Closser,  M. P. Coons,  S. Coriani,  S. Dasgupta,  
 A. L. Dempwolff,  M. Diedenhofen,  Hainam Do,  R. G. Edgar,  Po-Tung Fang,  
 S. Faraji,  S. Fatehi,  Qingguo Feng,  K. D. Fenk,  J. Fosso-Tande,  
 Qinghui Ge,  A. Ghysels,  G. Gidofalvi,  J. Gomes,  J. Gonthier,  A. Gunina,  
 D. Hait,  M. W. D. Hanson-Heine,  P. H. P. Harbach,  A. W. Hauser,  
 J. E. Herr,  E. G. Hohenstein,  Z. C. Holden,  Kerwin Hui,  B. C. Huynh,  
 T.-C. Jagau,  Hyunjun Ji,  B. Kaduk,  K. Khistyaev,  Jaehoon Kim,  
 P. Klunzinger,  K. Koh,  D. Kosenkov,  L. Koulias,  T. Kowalczyk,  
 C. M. Krauter,  A. Kunitsa,  Ka Un Lao,  A. Laurent,  K. V. Lawler,  
 Joonho Lee,  D. Lefrancois,  S. Lehtola,  D. S. Levine,  Yi-Pei Li,  
 You-Sheng Lin,  Fenglai Liu,  E. Livshits,  A. Luenser,  P. Manohar,  
 E. Mansoor,  S. F. Manzer,  Shan-Ping Mao,  Yuezhi Mao,  N. Mardirossian,  
 A. V. Marenich,  T. Markovich,  L. A. Martinez-Martinez,  S. A. Maurer,  
 N. J. Mayhall,  S. C. McKenzie,  J.-M. Mewes,  A. F. Morrison,  
 J. W. Mullinax,  K. Nanda,  T. S. Nguyen-Beck,  R. Olivares-Amaya,  
 J. A. Parkhill,  T. M. Perrine,  F. Plasser,  P. Pokhilko,  S. Prager,  
 A. Prociuk,  E. Ramos,  D. R. Rehn,  F. Rob,  M. Schneider,  N. Sergueev,  
 S. M. Sharada,  S. Sharma,  D. W. Small,  T. Stauch,  T. Stein,  
 Yu-Chuan Su,  A. J. W. Thom,  A. Tkatchenko,  T. Tsuchimochi,  N. M. Tubman,  
 L. Vogt,  M. L. Vidal,  O. Vydrov,  M. A. Watson,  J. Wenzel,  
 M. de Wergifosse,  T. A. Wesolowski,  A. White,  J. Witte,  A. Yamada,  
 Jun Yang,  K. Yao,  S. Yeganeh,  S. R. Yost,  Zhi-Qiang You,  A. Zech,  
 Igor Ying Zhang,  Xing Zhang,  Yan Zhao,  Ying Zhu,  B. R. Brooks,  
 G. K. L. Chan,  C. J. Cramer,  M. S. Gordon,  W. J. Hehre,  A. Klamt,  
 M. W. Schmidt,  C. D. Sherrill,  D. G. Truhlar,  A. Aspuru-Guzik,  R. Baer,  
 A. T. Bell,  N. A. Besley,  Jeng-Da Chai,  A. E. DePrince, III,  
 R. A. DiStasio Jr.,  A. Dreuw,  B. D. Dunietz,  T. R. Furlani,  
 Chao-Ping Hsu,  Yousung Jung,  Jing Kong,  D. S. Lambrecht,  WanZhen Liang,  
 C. Ochsenfeld,  V. A. Rassolov,  L. V. Slipchenko,  J. E. Subotnik,  
 T. Van Voorhis,  J. M. Herbert,  A. I. Krylov,  P. M. W. Gill,  M. Head-Gordon

 Contributors to earlier versions of Q-Chem not listed above: 
 R. D. Adamson,  B. Austin,  J. Baker,  G. J. O. Beran,  K. Brandhorst,  
 S. T. Brown,  E. F. C. Byrd,  A. K. Chakraborty,  C.-L. Cheng,  
 Siu Hung Chien,  D. M. Chipman,  D. L. Crittenden,  H. Dachsel,  
 R. J. Doerksen,  A. D. Dutoi,  L. Fusti-Molnar,  W. A. Goddard III,  
 A. Golubeva-Zadorozhnaya,  S. R. Gwaltney,  G. Hawkins,  A. Heyden,  
 S. Hirata,  G. Kedziora,  F. J. Keil,  C. Kelley,  Jihan Kim,  R. A. King,  
 R. Z. Khaliullin,  P. P. Korambath,  W. Kurlancheek,  A. M. Lee,  M. S. Lee,  
 S. V. Levchenko,  Ching Yeh Lin,  D. Liotard,  R. C. Lochan,  I. Lotan,  
 P. E. Maslen,  N. Nair,  D. P. O'Neill,  D. Neuhauser,  E. Neuscamman,  
 C. M. Oana,  R. Olson,  B. Peters,  R. Peverati,  P. A. Pieniazek,  
 Y. M. Rhee,  J. Ritchie,  M. A. Rohrdanz,  E. Rosta,  N. J. Russ,  
 H. F. Schaefer III,  N. E. Schultz,  N. Shenvi,  A. C. Simmonett,  A. Sodt,  
 D. Stuck,  K. S. Thanthiriwatte,  V. Vanovschi,  Tao Wang,  A. Warshel,  
 C. F. Williams,  Q. Wu,  X. Xu,  W. Zhang

 Please cite Q-Chem as follows:
 Y. Shao et al., Mol. Phys. 113, 184-215 (2015)
 DOI: 10.1080/00268976.2014.952696

 Q-Chem 5.1.1 for Intel X86 EM64T Linux

 Parts of Q-Chem use Armadillo 8.300.2 (Tropical Shenanigans).
 http://arma.sourceforge.net/

 Q-Chem begins on Fri Nov  6 12:34:34 2020  

Host: n0057.mhg0
0

     Scratch files written to /local/scratch/users/yhljason/SH-_wB97M2_aug-cc-pcVQZ.inp20201106122542//
The previous job contains 0 fragments, simply inherited here
Input Ideriv = 0
Curr. Ideriv = -1
Max.  Ideriv = 0
Analytic post-HF gradients are not available with non-HF exchange
Input Ideriv = 0
Curr. Ideriv = 0
Max.  Ideriv = 0

Checking the input file for inconsistencies... 	...done.

--------------------------------------------------------------
User input:
--------------------------------------------------------------
$molecule
read
$end

$rem
jobtype sp
exchange wB97M(2)
xc_grid 000099000590
basis aug-cc-pcVQZ
max_scf_cycles 200
thresh 14
scf_convergence 8
scf_algorithm gdm
symmetry false
sym_ignore true
unrestricted false
gen_scfman false
mem_total 128000
cc_memory 96000
cc_backend xm
mem_static 1500
n_frozen_core 0
scf_guess read
$end



--------------------------------------------------------------
 ----------------------------------------------------------------
             Standard Nuclear Orientation (Angstroms)
    I     Atom           X                Y                Z
 ----------------------------------------------------------------
    1      S       0.0000000000     0.0000000000     0.0000000000
    2      H       0.0000000000     0.0000000000     1.3432000000
 ----------------------------------------------------------------
 Nuclear Repulsion Energy =     6.3034807719 hartrees
 There are        9 alpha and        9 beta electrons
 Requested basis set is aug-cc-pCVQZ
 There are 48 shells and 180 basis functions

 Total QAlloc Memory Limit 128000 MB
 Mega-Array Size      1467 MB
 MEM_STATIC part      1500 MB

                       Distance Matrix (Angstroms)
             S (  1)
   H (  2)  1.343200
 
 A cutoff of  1.0D-14 yielded   1176 shell pairs
 There are     16684 function pairs (     27154 Cartesian)
 
 -------------------------------------------------------
 OpenMP Integral Computing Module                       
 Release: version 1.0, May 2013, Q-Chem Inc. Pittsburgh 
 -------------------------------------------------------
 Integral Job Info:
 Integral job number is                      11
 Integral operator is                         1
 short-range coefficients              15000000
 long-range coefficients              100000000
 Omega coefficients                         300
 if combine SR and LR in K                    1
 Integral screening is                        0
 Integral computing path is                   2
 max size of driver memory is           3200000
 size of driver memory is               1704330
 size of scratch memory is             28840424
 max col of scratch BK array              50625
 max len of scratch array in speh3         2114
 max len of scratch index in speh4           50
 max int batch size is                      520
 min int batch size is                       52
 fixed nKL is                                21
 max L of basis functions is                  4
 order of int derivative is                   0
 number of shells is                         48
 number of basis is                         229
 number of cartesian basis is               229
 number of contracted shell pairs          1176
 number of primitive shell pairs           5239
 maxK2 (contraction) of shell pair          169
 max number of K2 of shell pair               1
 max number of CS2 of shell pair            122
 max number of PS2 of shell pair           1014
 mem total for path MDJ                  642646
 -------------------------------------------------------
 Smallest overlap matrix eigenvalue = 2.76E-05

 Scale SEOQF with 1.000000e-01/1.000000e-01/1.000000e-01

 Standard Electronic Orientation quadrupole field applied
 Nucleus-field energy     =    -0.0000000002 hartrees
 Guess MOs from SCF MO coefficient file
 Reading MOs from coefficient file
 Reading MOs from coefficient file
 Long-range K will be added via erf
 Coulomb attenuation parameter = 0.3 bohr**(-1)
 A restricted hybrid HF-DFT SCF calculation will be
 performed using Geometric Direct Minimization
 Exchange:     0.1500 Hartree-Fock + 1.0000 wB97M-V + LR-HF
 Correlation:  1.0000 wB97M-V
 Using Euler-Maclaurin-Lebedev (99,590) quadrature formula
 Nonlocal Correlation:  VV10 with C = 0.0100 and b = 6.00 and scale = 1.00000
 Grid used for NLC:  SG-1 standard quadrature
 SCF converges when RMS gradient is below 1.0E-08
Using Q-Chem read-in guess as SCF_GUESS READ specified.

 using 16 threads for integral computing
 -------------------------------------------------------
 OpenMP Integral computing Module                
 Release: version 1.0, May 2013, Q-Chem Inc. Pittsburgh 
 -------------------------------------------------------
 using 16 threads for integral computing
 -------------------------------------------------------
 OpenMP Integral computing Module                
 Release: version 1.0, May 2013, Q-Chem Inc. Pittsburgh 
 -------------------------------------------------------
TIMEINFO->: J/JK contribution 62.67 sec.
 -------------------------------------------------------
 OpenMP BLAS3 based DFT computing Module                
 Release: version 1.0, May 2013, Q-Chem Inc. Pittsburgh 
 -------------------------------------------------------
 -------------------------------------------------------
 OpenMP BLAS3 based DFT computing Module                
 Release: version 1.0, May 2013, Q-Chem Inc. Pittsburgh 
 -------------------------------------------------------
 -------------------------------------------------------
 OpenMP BLAS3 based DFT computing Module                
 Release: version 1.0, May 2013, Q-Chem Inc. Pittsburgh 
 -------------------------------------------------------
 ---------------------------------------
  Cycle       Energy        RMS Gradient
 ---------------------------------------
    1    -398.8236128084      2.18E-09 Normal BFGS step
TIMEINFO->: J/JK contribution 63.37 sec.
   GDM::WARNING energy changes are now smaller than effective accuracy.
   GDM::        calculation will continue, but THRESH should be increased
   GDM::        or SCF_CONVERGENCE decreased.
   GDM::        effective_thresh =   9.000000000000000E-011
 Nonlocal correlation =     0.0242077997
    2    -398.8236128084      1.39E-09 Convergence criterion met
 ---------------------------------------
 wB97M-V orbitals are now ready for the wB97M(2) calculation.
 wB97M(2) energy = Exch (0.62194 SRHF + 1.0 LRHF + wB97M(2)_EXCH) + 
               Corr (wB97M(2)_CORR + 0.34096 MP2 + 0.65904 VV10(b=10))
 SCF time:  CPU 253.02 s  wall 16.03 s
 SCF   energy in the final basis set = -398.74618777
 Total energy in the final basis set = -398.74618777
 
 Components of the MP2 correlation energy:
        aaaa  correlation energy =        -0.0282626560 au
        abab  correlation energy =        -0.1704090721 au
        bbbb  correlation energy =        -0.0282626560 au
        non-Brillouin singles    =        -0.0000000000 au

 Total  MP2   correlation energy =                    -0.22693438 au
        MP2         total energy =                  -398.97312216 au
 
 --------------------------------------------------------------
 
                    Orbital Energies (a.u.)
 --------------------------------------------------------------
 
 Alpha MOs
 -- Occupied --
-88.893  -7.825  -5.735  -5.729  -5.729  -0.539  -0.221  -0.081
 -0.081
 -- Virtual --
  0.130   0.195   0.210   0.210   0.259   0.319   0.351   0.351
  0.375   0.375   0.390   0.410   0.410   0.451   0.537   0.590
  0.590   0.596   0.673   0.673   0.714   0.714   0.722   0.722
  0.731   0.731   0.779   0.801   0.801   0.857   0.896   0.896
  0.929   0.942   0.942   1.088   1.301   1.351   1.351   1.465
  1.465   1.489   1.489   1.512   1.582   1.582   1.627   1.627
  1.645   1.645   1.650   1.650   1.663   1.663   1.725   1.759
  1.759   1.800   1.800   1.823   1.891   1.891   1.913   1.984
  1.984   2.128   2.128   2.247   2.388   2.388   2.533   2.746
  3.008   3.008   3.018   3.018   3.160   3.311   3.311   3.465
  3.465   3.656   3.686   3.686   3.690   3.690   3.703   3.703
  3.837   3.867   3.867   3.867   3.867   3.938   3.938   4.035
  4.035   4.303   4.637   4.637   4.731   5.331   5.331   6.170
  6.589   6.589   6.925   6.925   7.201   7.311   7.311   7.945
  8.445   8.445   8.505   8.505   8.595   9.116   9.116   9.469
  9.965   9.965  10.113  10.166  10.166  11.357  16.042  16.042
 16.758  18.552  18.552  18.560  18.560  18.759  18.759  19.138
 28.306  31.550  31.550  31.666  31.666  32.163  45.795  45.795
 46.469  55.495  55.495  55.496  55.496  55.497  55.497  55.498
 55.499  55.499  65.669  65.669  65.672  65.672  65.767  65.767
 65.913  82.251  93.446  93.448  93.533  93.533  93.860 145.193
145.193 145.674 387.833
 --------------------------------------------------------------
 
          Ground-State Mulliken Net Atomic Charges

     Atom                 Charge (a.u.)
  ----------------------------------------
      1 S                    -0.913424
      2 H                    -0.086576
  ----------------------------------------
  Sum of atomic charges =    -1.000000

 -----------------------------------------------------------------
                    Cartesian Multipole Moments
 -----------------------------------------------------------------
    Charge (ESU x 10^10)
                -4.8032
    Dipole Moment (Debye)
         X      -0.0000      Y       0.0000      Z       0.1600
       Tot       0.1600
    Quadrupole Moments (Debye-Ang)
        XX     -22.0100     XY      -0.0000     YY     -22.0100
        XZ       0.0000     YZ      -0.0000     ZZ     -17.6292
    Octopole Moments (Debye-Ang^2)
       XXX      -0.0000    XXY       0.0000    XYY      -0.0000
       YYY       0.0000    XXZ      -1.5567    XYZ       0.0000
       YYZ      -1.5567    XZZ      -0.0000    YZZ       0.0000
       ZZZ      -4.0783
    Hexadecapole Moments (Debye-Ang^3)
      XXXX     -56.4977   XXXY      -0.0000   XXYY     -18.8326
      XYYY      -0.0000   YYYY     -56.4977   XXXZ      -0.0000
      XXYZ      -0.0000   XYYZ      -0.0000   YYYZ      -0.0000
      XXZZ     -17.1270   XYZZ       0.0000   YYZZ     -17.1270
      XZZZ      -0.0000   YZZZ       0.0000   ZZZZ     -43.3337
 -----------------------------------------------------------------
Archival summary:
1\1\n0057.mhg0\SP\ProcedureUnspecified\BasisUnspecified\11(1-,1)\yhljason\FriNov612:35:592020FriNov612:35:592020\0\\#,ProcedureUnspecified,BasisUnspecified,\\-1,1\S\H,1,1.3432\\\@

 Total job time:  85.09s(wall), 1349.77s(cpu) 
 Fri Nov  6 12:35:59 2020

        *************************************************************
        *                                                           *
        *  Thank you very much for using Q-Chem.  Have a nice day.  *
        *                                                           *
        *************************************************************


 
User input: 3 of 6 
 
Q-Chem Developer Version!
                  Welcome to Q-Chem
     A Quantum Leap Into The Future Of Chemistry


 Q-Chem 5.1, Q-Chem, Inc., Pleasanton, CA (2018)

 Yihan Shao,  Zhengting Gan,  E. Epifanovsky,  A. T. B. Gilbert,  M. Wormit,  
 J. Kussmann,  A. W. Lange,  A. Behn,  Jia Deng,  Xintian Feng,  D. Ghosh,  
 M. Goldey,  P. R. Horn,  L. D. Jacobson,  I. Kaliman,  T. Kus,  A. Landau,  
 Jie Liu,  E. I. Proynov,  R. M. Richard,  R. P. Steele,  E. J. Sundstrom,  
 H. L. Woodcock III,  P. M. Zimmerman,  D. Zuev,  B. Albrecht,  E. Alguire,  
 S. A. Baeppler,  D. Barton,  Z. Benda,  Y. A. Bernard,  E. J. Berquist,  
 K. B. Bravaya,  H. Burton,  D. Casanova,  Chun-Min Chang,  Yunqing Chen,  
 A. Chien,  K. D. Closser,  M. P. Coons,  S. Coriani,  S. Dasgupta,  
 A. L. Dempwolff,  M. Diedenhofen,  Hainam Do,  R. G. Edgar,  Po-Tung Fang,  
 S. Faraji,  S. Fatehi,  Qingguo Feng,  K. D. Fenk,  J. Fosso-Tande,  
 Qinghui Ge,  A. Ghysels,  G. Gidofalvi,  J. Gomes,  J. Gonthier,  A. Gunina,  
 D. Hait,  M. W. D. Hanson-Heine,  P. H. P. Harbach,  A. W. Hauser,  
 J. E. Herr,  E. G. Hohenstein,  Z. C. Holden,  Kerwin Hui,  B. C. Huynh,  
 T.-C. Jagau,  Hyunjun Ji,  B. Kaduk,  K. Khistyaev,  Jaehoon Kim,  
 P. Klunzinger,  K. Koh,  D. Kosenkov,  L. Koulias,  T. Kowalczyk,  
 C. M. Krauter,  A. Kunitsa,  Ka Un Lao,  A. Laurent,  K. V. Lawler,  
 Joonho Lee,  D. Lefrancois,  S. Lehtola,  D. S. Levine,  Yi-Pei Li,  
 You-Sheng Lin,  Fenglai Liu,  E. Livshits,  A. Luenser,  P. Manohar,  
 E. Mansoor,  S. F. Manzer,  Shan-Ping Mao,  Yuezhi Mao,  N. Mardirossian,  
 A. V. Marenich,  T. Markovich,  L. A. Martinez-Martinez,  S. A. Maurer,  
 N. J. Mayhall,  S. C. McKenzie,  J.-M. Mewes,  A. F. Morrison,  
 J. W. Mullinax,  K. Nanda,  T. S. Nguyen-Beck,  R. Olivares-Amaya,  
 J. A. Parkhill,  T. M. Perrine,  F. Plasser,  P. Pokhilko,  S. Prager,  
 A. Prociuk,  E. Ramos,  D. R. Rehn,  F. Rob,  M. Schneider,  N. Sergueev,  
 S. M. Sharada,  S. Sharma,  D. W. Small,  T. Stauch,  T. Stein,  
 Yu-Chuan Su,  A. J. W. Thom,  A. Tkatchenko,  T. Tsuchimochi,  N. M. Tubman,  
 L. Vogt,  M. L. Vidal,  O. Vydrov,  M. A. Watson,  J. Wenzel,  
 M. de Wergifosse,  T. A. Wesolowski,  A. White,  J. Witte,  A. Yamada,  
 Jun Yang,  K. Yao,  S. Yeganeh,  S. R. Yost,  Zhi-Qiang You,  A. Zech,  
 Igor Ying Zhang,  Xing Zhang,  Yan Zhao,  Ying Zhu,  B. R. Brooks,  
 G. K. L. Chan,  C. J. Cramer,  M. S. Gordon,  W. J. Hehre,  A. Klamt,  
 M. W. Schmidt,  C. D. Sherrill,  D. G. Truhlar,  A. Aspuru-Guzik,  R. Baer,  
 A. T. Bell,  N. A. Besley,  Jeng-Da Chai,  A. E. DePrince, III,  
 R. A. DiStasio Jr.,  A. Dreuw,  B. D. Dunietz,  T. R. Furlani,  
 Chao-Ping Hsu,  Yousung Jung,  Jing Kong,  D. S. Lambrecht,  WanZhen Liang,  
 C. Ochsenfeld,  V. A. Rassolov,  L. V. Slipchenko,  J. E. Subotnik,  
 T. Van Voorhis,  J. M. Herbert,  A. I. Krylov,  P. M. W. Gill,  M. Head-Gordon

 Contributors to earlier versions of Q-Chem not listed above: 
 R. D. Adamson,  B. Austin,  J. Baker,  G. J. O. Beran,  K. Brandhorst,  
 S. T. Brown,  E. F. C. Byrd,  A. K. Chakraborty,  C.-L. Cheng,  
 Siu Hung Chien,  D. M. Chipman,  D. L. Crittenden,  H. Dachsel,  
 R. J. Doerksen,  A. D. Dutoi,  L. Fusti-Molnar,  W. A. Goddard III,  
 A. Golubeva-Zadorozhnaya,  S. R. Gwaltney,  G. Hawkins,  A. Heyden,  
 S. Hirata,  G. Kedziora,  F. J. Keil,  C. Kelley,  Jihan Kim,  R. A. King,  
 R. Z. Khaliullin,  P. P. Korambath,  W. Kurlancheek,  A. M. Lee,  M. S. Lee,  
 S. V. Levchenko,  Ching Yeh Lin,  D. Liotard,  R. C. Lochan,  I. Lotan,  
 P. E. Maslen,  N. Nair,  D. P. O'Neill,  D. Neuhauser,  E. Neuscamman,  
 C. M. Oana,  R. Olson,  B. Peters,  R. Peverati,  P. A. Pieniazek,  
 Y. M. Rhee,  J. Ritchie,  M. A. Rohrdanz,  E. Rosta,  N. J. Russ,  
 H. F. Schaefer III,  N. E. Schultz,  N. Shenvi,  A. C. Simmonett,  A. Sodt,  
 D. Stuck,  K. S. Thanthiriwatte,  V. Vanovschi,  Tao Wang,  A. Warshel,  
 C. F. Williams,  Q. Wu,  X. Xu,  W. Zhang

 Please cite Q-Chem as follows:
 Y. Shao et al., Mol. Phys. 113, 184-215 (2015)
 DOI: 10.1080/00268976.2014.952696

 Q-Chem 5.1.1 for Intel X86 EM64T Linux

 Parts of Q-Chem use Armadillo 8.300.2 (Tropical Shenanigans).
 http://arma.sourceforge.net/

 Q-Chem begins on Fri Nov  6 12:35:59 2020  

Host: n0057.mhg0
0

     Scratch files written to /local/scratch/users/yhljason/SH-_wB97M2_aug-cc-pcVQZ.inp20201106122542//
The previous job contains 0 fragments, simply inherited here
Input Ideriv = 2
Curr. Ideriv = -1
Max.  Ideriv = 2
Input Ideriv = 1
Curr. Ideriv = 2
Max.  Ideriv = 1

Checking the input file for inconsistencies... 	...done.

--------------------------------------------------------------
User input:
--------------------------------------------------------------
$molecule
read
$end

$rem

jobtype sp
method wb97m-v
xc_grid 000099000590
basis aug-cc-pcVQZ
max_scf_cycles 200
thresh 14
scf_convergence 8
mem_total 128000
cc_memory 96000
cc_backend xm
mem_static 1500
symmetry false
sym_ignore true
scf_guess read
unrestricted false
scf_algorithm gdm
n_frozen_core 0
gen_scfman true
$end

$multipole_field
Z 0.0001
$end



--------------------------------------------------------------
 ----------------------------------------------------------------
             Standard Nuclear Orientation (Angstroms)
    I     Atom           X                Y                Z
 ----------------------------------------------------------------
    1      S       0.0000000000     0.0000000000     0.0000000000
    2      H       0.0000000000     0.0000000000     1.3432000000
 ----------------------------------------------------------------
 Nuclear Repulsion Energy =     6.3034807719 hartrees
 There are        9 alpha and        9 beta electrons
 Requested basis set is aug-cc-pCVQZ
 There are 48 shells and 180 basis functions

 Total QAlloc Memory Limit 128000 MB
 Mega-Array Size      1467 MB
 MEM_STATIC part      1500 MB

                       Distance Matrix (Angstroms)
             S (  1)
   H (  2)  1.343200
 
 Applying Cartesian multipole field
    Component          Value
    ---------          -----
     (0,0,1)        1.00000E-04
 Nucleus-field energy     =     0.0002538280 hartrees
 A cutoff of  1.0D-14 yielded   1176 shell pairs
 There are     16684 function pairs (     27154 Cartesian)
 
 -------------------------------------------------------
 OpenMP Integral Computing Module                       
 Release: version 1.0, May 2013, Q-Chem Inc. Pittsburgh 
 -------------------------------------------------------
 Integral Job Info:
 Integral job number is                      11
 Integral operator is                         1
 short-range coefficients              15000000
 long-range coefficients              100000000
 Omega coefficients                         300
 if combine SR and LR in K                    1
 Integral screening is                        0
 Integral computing path is                   2
 max size of driver memory is           3200000
 size of driver memory is               1704330
 size of scratch memory is             28840424
 max col of scratch BK array              50625
 max len of scratch array in speh3         2114
 max len of scratch index in speh4           50
 max int batch size is                      520
 min int batch size is                       52
 fixed nKL is                                21
 max L of basis functions is                  4
 order of int derivative is                   0
 number of shells is                         48
 number of basis is                         229
 number of cartesian basis is               229
 number of contracted shell pairs          1176
 number of primitive shell pairs           5239
 maxK2 (contraction) of shell pair          169
 max number of K2 of shell pair               1
 max number of CS2 of shell pair            122
 max number of PS2 of shell pair           1014
 mem total for path MDJ                  642646
 -------------------------------------------------------
 Smallest overlap matrix eigenvalue = 2.76E-05
 Guess MOs from SCF MO coefficient file

 -----------------------------------------------------------------------
  General SCF calculation program by
  Eric Jon Sundstrom, Paul Horn, Yuezhi Mao, Dmitri Zuev, Alec White,
  David Stuck, Shaama M.S., Shane Yost, Joonho Lee, David Small,
  Daniel Levine, Susi Lehtola, Hugh Burton, Evgeny Epifanovsky
 -----------------------------------------------------------------------
 Exchange:     0.1500 Hartree-Fock + 1.0000 wB97M-V + LR-HF
 Correlation:  1.0000 wB97M-V
 Using Euler-Maclaurin-Lebedev (99,590) quadrature formula
 Nonlocal Correlation:  VV10 with C = 0.0100 and b = 6.00 and scale = 1.00000
 Grid used for NLC:  SG-1 standard quadrature
 using 16 threads for integral computing
 -------------------------------------------------------
 OpenMP Integral computing Module                
 Release: version 1.0, May 2013, Q-Chem Inc. Pittsburgh 
 -------------------------------------------------------
 using 16 threads for integral computing
 -------------------------------------------------------
 OpenMP Integral computing Module                
 Release: version 1.0, May 2013, Q-Chem Inc. Pittsburgh 
 -------------------------------------------------------
 -------------------------------------------------------
 OpenMP BLAS3 based DFT computing Module                
 Release: version 1.0, May 2013, Q-Chem Inc. Pittsburgh 
 -------------------------------------------------------
 -------------------------------------------------------
 OpenMP BLAS3 based DFT computing Module                
 Release: version 1.0, May 2013, Q-Chem Inc. Pittsburgh 
 -------------------------------------------------------
 -------------------------------------------------------
 OpenMP BLAS3 based DFT computing Module                
 Release: version 1.0, May 2013, Q-Chem Inc. Pittsburgh 
 -------------------------------------------------------
 Nonlocal correlation = 0.074933422774
 A restricted SCF calculation will be
 performed using GDM
 SCF converges when RMS gradient is below 1.0e-08
 ---------------------------------------
  Cycle       Energy        RMS Gradient
 ---------------------------------------
 Nonlocal correlation = 7.493342530119e-02
    1    -398.8236065124      2.11e-04   Normal BFGS step
 Nonlocal correlation = 7.493349917145e-02
    2    -398.8236066951      9.57e-05   Normal BFGS step
 Nonlocal correlation = 7.493342921538e-02
    3    -398.8236067284      9.50e-06   Normal BFGS step
 Nonlocal correlation = 7.493345015789e-02
    4    -398.8236067297      3.62e-06   Normal BFGS step
 Nonlocal correlation = 7.493344724871e-02
    5    -398.8236067298      9.50e-07   Normal BFGS step
 Nonlocal correlation = 7.493344644886e-02
    6    -398.8236067298      4.58e-07   Normal BFGS step
 Nonlocal correlation = 7.493344634029e-02
    7    -398.8236067298      1.13e-07   Normal BFGS step
 Nonlocal correlation = 7.493344634477e-02
    8    -398.8236067298      1.11e-08   Normal BFGS step
 Nonlocal correlation = 7.493344634082e-02
    9    -398.8236067298      4.16e-09  Convergence criterion met
 ---------------------------------------
 SCF time:   CPU 738.73s  wall 47.00s 
 SCF   energy in the final basis set =     -398.8236067298
 Total energy in the final basis set =     -398.8236067298
 
 --------------------------------------------------------------
 
                    Orbital Energies (a.u.)
 --------------------------------------------------------------
 
 Alpha MOs
 -- Occupied --
-88.893  -7.825  -5.735  -5.729  -5.729  -0.539  -0.221  -0.081
 -0.081
 -- Virtual --
  0.129   0.195   0.210   0.210   0.259   0.319   0.351   0.351
  0.375   0.375   0.390   0.410   0.410   0.451   0.537   0.590
  0.590   0.596   0.673   0.673   0.714   0.714   0.722   0.722
  0.731   0.731   0.779   0.801   0.801   0.857   0.896   0.896
  0.929   0.942   0.942   1.088   1.301   1.351   1.351   1.465
  1.465   1.489   1.489   1.512   1.582   1.582   1.627   1.627
  1.645   1.645   1.650   1.650   1.663   1.663   1.725   1.759
  1.759   1.800   1.800   1.823   1.891   1.891   1.913   1.984
  1.984   2.128   2.128   2.247   2.388   2.388   2.533   2.746
  3.008   3.008   3.017   3.017   3.160   3.311   3.311   3.465
  3.465   3.656   3.686   3.686   3.690   3.690   3.703   3.703
  3.837   3.867   3.867   3.867   3.867   3.938   3.938   4.035
  4.035   4.303   4.637   4.637   4.731   5.331   5.331   6.170
  6.589   6.589   6.925   6.925   7.201   7.311   7.311   7.945
  8.445   8.445   8.505   8.505   8.595   9.115   9.115   9.469
  9.965   9.965  10.113  10.166  10.166  11.357  16.042  16.042
 16.758  18.552  18.552  18.560  18.560  18.758  18.758  19.138
 28.306  31.550  31.550  31.666  31.666  32.163  45.795  45.795
 46.469  55.495  55.495  55.496  55.496  55.497  55.497  55.498
 55.499  55.499  65.669  65.669  65.672  65.672  65.767  65.767
 65.913  82.251  93.446  93.448  93.533  93.533  93.860 145.193
145.193 145.674 387.833
 --------------------------------------------------------------
 
          Ground-State Mulliken Net Atomic Charges

     Atom                 Charge (a.u.)
  ----------------------------------------
      1 S                    -0.912250
      2 H                    -0.087750
  ----------------------------------------
  Sum of atomic charges =    -1.000000

 -----------------------------------------------------------------
                    Cartesian Multipole Moments
 -----------------------------------------------------------------
    Charge (ESU x 10^10)
                -4.8032
    Dipole Moment (Debye)
         X      -0.0000      Y       0.0000      Z       0.1490
       Tot       0.1490
    Quadrupole Moments (Debye-Ang)
        XX     -22.0088     XY       0.0000     YY     -22.0088
        XZ      -0.0000     YZ      -0.0000     ZZ     -17.6333
    Octopole Moments (Debye-Ang^2)
       XXX      -0.0000    XXY       0.0000    XYY      -0.0000
       YYY       0.0000    XXZ      -1.5711    XYZ      -0.0000
       YYZ      -1.5711    XZZ      -0.0000    YZZ       0.0000
       ZZZ      -4.1164
    Hexadecapole Moments (Debye-Ang^3)
      XXXX     -56.4866   XXXY       0.0000   XXYY     -18.8289
      XYYY       0.0000   YYYY     -56.4866   XXXZ       0.0000
      XXYZ      -0.0000   XYYZ      -0.0000   YYYZ      -0.0000
      XXZZ     -17.1289   XYZZ       0.0000   YYZZ     -17.1289
      XZZZ      -0.0000   YZZZ       0.0000   ZZZZ     -43.3638
 -----------------------------------------------------------------
Archival summary:
1\1\n0057.mhg0\SP\ProcedureUnspecified\BasisUnspecified\11(1-,1)\yhljason\FriNov612:36:472020FriNov612:36:472020\0\\#,ProcedureUnspecified,BasisUnspecified,\\-1,1\S\H,1,1.3432\\\@

 Total job time:  48.38s(wall), 751.51s(cpu) 
 Fri Nov  6 12:36:47 2020

        *************************************************************
        *                                                           *
        *  Thank you very much for using Q-Chem.  Have a nice day.  *
        *                                                           *
        *************************************************************


 
User input: 4 of 6 
 
Q-Chem Developer Version!
                  Welcome to Q-Chem
     A Quantum Leap Into The Future Of Chemistry


 Q-Chem 5.1, Q-Chem, Inc., Pleasanton, CA (2018)

 Yihan Shao,  Zhengting Gan,  E. Epifanovsky,  A. T. B. Gilbert,  M. Wormit,  
 J. Kussmann,  A. W. Lange,  A. Behn,  Jia Deng,  Xintian Feng,  D. Ghosh,  
 M. Goldey,  P. R. Horn,  L. D. Jacobson,  I. Kaliman,  T. Kus,  A. Landau,  
 Jie Liu,  E. I. Proynov,  R. M. Richard,  R. P. Steele,  E. J. Sundstrom,  
 H. L. Woodcock III,  P. M. Zimmerman,  D. Zuev,  B. Albrecht,  E. Alguire,  
 S. A. Baeppler,  D. Barton,  Z. Benda,  Y. A. Bernard,  E. J. Berquist,  
 K. B. Bravaya,  H. Burton,  D. Casanova,  Chun-Min Chang,  Yunqing Chen,  
 A. Chien,  K. D. Closser,  M. P. Coons,  S. Coriani,  S. Dasgupta,  
 A. L. Dempwolff,  M. Diedenhofen,  Hainam Do,  R. G. Edgar,  Po-Tung Fang,  
 S. Faraji,  S. Fatehi,  Qingguo Feng,  K. D. Fenk,  J. Fosso-Tande,  
 Qinghui Ge,  A. Ghysels,  G. Gidofalvi,  J. Gomes,  J. Gonthier,  A. Gunina,  
 D. Hait,  M. W. D. Hanson-Heine,  P. H. P. Harbach,  A. W. Hauser,  
 J. E. Herr,  E. G. Hohenstein,  Z. C. Holden,  Kerwin Hui,  B. C. Huynh,  
 T.-C. Jagau,  Hyunjun Ji,  B. Kaduk,  K. Khistyaev,  Jaehoon Kim,  
 P. Klunzinger,  K. Koh,  D. Kosenkov,  L. Koulias,  T. Kowalczyk,  
 C. M. Krauter,  A. Kunitsa,  Ka Un Lao,  A. Laurent,  K. V. Lawler,  
 Joonho Lee,  D. Lefrancois,  S. Lehtola,  D. S. Levine,  Yi-Pei Li,  
 You-Sheng Lin,  Fenglai Liu,  E. Livshits,  A. Luenser,  P. Manohar,  
 E. Mansoor,  S. F. Manzer,  Shan-Ping Mao,  Yuezhi Mao,  N. Mardirossian,  
 A. V. Marenich,  T. Markovich,  L. A. Martinez-Martinez,  S. A. Maurer,  
 N. J. Mayhall,  S. C. McKenzie,  J.-M. Mewes,  A. F. Morrison,  
 J. W. Mullinax,  K. Nanda,  T. S. Nguyen-Beck,  R. Olivares-Amaya,  
 J. A. Parkhill,  T. M. Perrine,  F. Plasser,  P. Pokhilko,  S. Prager,  
 A. Prociuk,  E. Ramos,  D. R. Rehn,  F. Rob,  M. Schneider,  N. Sergueev,  
 S. M. Sharada,  S. Sharma,  D. W. Small,  T. Stauch,  T. Stein,  
 Yu-Chuan Su,  A. J. W. Thom,  A. Tkatchenko,  T. Tsuchimochi,  N. M. Tubman,  
 L. Vogt,  M. L. Vidal,  O. Vydrov,  M. A. Watson,  J. Wenzel,  
 M. de Wergifosse,  T. A. Wesolowski,  A. White,  J. Witte,  A. Yamada,  
 Jun Yang,  K. Yao,  S. Yeganeh,  S. R. Yost,  Zhi-Qiang You,  A. Zech,  
 Igor Ying Zhang,  Xing Zhang,  Yan Zhao,  Ying Zhu,  B. R. Brooks,  
 G. K. L. Chan,  C. J. Cramer,  M. S. Gordon,  W. J. Hehre,  A. Klamt,  
 M. W. Schmidt,  C. D. Sherrill,  D. G. Truhlar,  A. Aspuru-Guzik,  R. Baer,  
 A. T. Bell,  N. A. Besley,  Jeng-Da Chai,  A. E. DePrince, III,  
 R. A. DiStasio Jr.,  A. Dreuw,  B. D. Dunietz,  T. R. Furlani,  
 Chao-Ping Hsu,  Yousung Jung,  Jing Kong,  D. S. Lambrecht,  WanZhen Liang,  
 C. Ochsenfeld,  V. A. Rassolov,  L. V. Slipchenko,  J. E. Subotnik,  
 T. Van Voorhis,  J. M. Herbert,  A. I. Krylov,  P. M. W. Gill,  M. Head-Gordon

 Contributors to earlier versions of Q-Chem not listed above: 
 R. D. Adamson,  B. Austin,  J. Baker,  G. J. O. Beran,  K. Brandhorst,  
 S. T. Brown,  E. F. C. Byrd,  A. K. Chakraborty,  C.-L. Cheng,  
 Siu Hung Chien,  D. M. Chipman,  D. L. Crittenden,  H. Dachsel,  
 R. J. Doerksen,  A. D. Dutoi,  L. Fusti-Molnar,  W. A. Goddard III,  
 A. Golubeva-Zadorozhnaya,  S. R. Gwaltney,  G. Hawkins,  A. Heyden,  
 S. Hirata,  G. Kedziora,  F. J. Keil,  C. Kelley,  Jihan Kim,  R. A. King,  
 R. Z. Khaliullin,  P. P. Korambath,  W. Kurlancheek,  A. M. Lee,  M. S. Lee,  
 S. V. Levchenko,  Ching Yeh Lin,  D. Liotard,  R. C. Lochan,  I. Lotan,  
 P. E. Maslen,  N. Nair,  D. P. O'Neill,  D. Neuhauser,  E. Neuscamman,  
 C. M. Oana,  R. Olson,  B. Peters,  R. Peverati,  P. A. Pieniazek,  
 Y. M. Rhee,  J. Ritchie,  M. A. Rohrdanz,  E. Rosta,  N. J. Russ,  
 H. F. Schaefer III,  N. E. Schultz,  N. Shenvi,  A. C. Simmonett,  A. Sodt,  
 D. Stuck,  K. S. Thanthiriwatte,  V. Vanovschi,  Tao Wang,  A. Warshel,  
 C. F. Williams,  Q. Wu,  X. Xu,  W. Zhang

 Please cite Q-Chem as follows:
 Y. Shao et al., Mol. Phys. 113, 184-215 (2015)
 DOI: 10.1080/00268976.2014.952696

 Q-Chem 5.1.1 for Intel X86 EM64T Linux

 Parts of Q-Chem use Armadillo 8.300.2 (Tropical Shenanigans).
 http://arma.sourceforge.net/

 Q-Chem begins on Fri Nov  6 12:36:47 2020  

Host: n0057.mhg0
0

     Scratch files written to /local/scratch/users/yhljason/SH-_wB97M2_aug-cc-pcVQZ.inp20201106122542//
The previous job contains 0 fragments, simply inherited here
Input Ideriv = 0
Curr. Ideriv = -1
Max.  Ideriv = 0
Analytic post-HF gradients are not available with non-HF exchange
Input Ideriv = 0
Curr. Ideriv = 0
Max.  Ideriv = 0

Checking the input file for inconsistencies... 	...done.

--------------------------------------------------------------
User input:
--------------------------------------------------------------
$molecule
read
$end

$rem

jobtype sp
exchange wb97m(2)
xc_grid 000099000590
basis aug-cc-pcVQZ
max_scf_cycles 200
thresh 14
scf_convergence 8
mem_total 128000
cc_memory 96000
cc_backend xm
mem_static 1500
symmetry false
sym_ignore true
scf_guess read
unrestricted false
scf_algorithm gdm
n_frozen_core 0
$end

$multipole_field
Z 0.0001
$end



--------------------------------------------------------------
 ----------------------------------------------------------------
             Standard Nuclear Orientation (Angstroms)
    I     Atom           X                Y                Z
 ----------------------------------------------------------------
    1      S       0.0000000000     0.0000000000     0.0000000000
    2      H       0.0000000000     0.0000000000     1.3432000000
 ----------------------------------------------------------------
 Nuclear Repulsion Energy =     6.3034807719 hartrees
 There are        9 alpha and        9 beta electrons
 Requested basis set is aug-cc-pCVQZ
 There are 48 shells and 180 basis functions

 Total QAlloc Memory Limit 128000 MB
 Mega-Array Size      1467 MB
 MEM_STATIC part      1500 MB

                       Distance Matrix (Angstroms)
             S (  1)
   H (  2)  1.343200
 
 Applying Cartesian multipole field
    Component          Value
    ---------          -----
     (0,0,1)        1.00000E-04
 Nucleus-field energy     =     0.0002538280 hartrees
 A cutoff of  1.0D-14 yielded   1176 shell pairs
 There are     16684 function pairs (     27154 Cartesian)
 
 -------------------------------------------------------
 OpenMP Integral Computing Module                       
 Release: version 1.0, May 2013, Q-Chem Inc. Pittsburgh 
 -------------------------------------------------------
 Integral Job Info:
 Integral job number is                      11
 Integral operator is                         1
 short-range coefficients              15000000
 long-range coefficients              100000000
 Omega coefficients                         300
 if combine SR and LR in K                    1
 Integral screening is                        0
 Integral computing path is                   2
 max size of driver memory is           3200000
 size of driver memory is               1704330
 size of scratch memory is             28840424
 max col of scratch BK array              50625
 max len of scratch array in speh3         2114
 max len of scratch index in speh4           50
 max int batch size is                      520
 min int batch size is                       52
 fixed nKL is                                21
 max L of basis functions is                  4
 order of int derivative is                   0
 number of shells is                         48
 number of basis is                         229
 number of cartesian basis is               229
 number of contracted shell pairs          1176
 number of primitive shell pairs           5239
 maxK2 (contraction) of shell pair          169
 max number of K2 of shell pair               1
 max number of CS2 of shell pair            122
 max number of PS2 of shell pair           1014
 mem total for path MDJ                  642646
 -------------------------------------------------------
 Smallest overlap matrix eigenvalue = 2.76E-05
 Guess MOs from SCF MO coefficient file
 Reading MOs from coefficient file
 Reading MOs from coefficient file
 Long-range K will be added via erf
 Coulomb attenuation parameter = 0.3 bohr**(-1)
 A restricted hybrid HF-DFT SCF calculation will be
 performed using Geometric Direct Minimization
 Exchange:     0.1500 Hartree-Fock + 1.0000 wB97M-V + LR-HF
 Correlation:  1.0000 wB97M-V
 Using Euler-Maclaurin-Lebedev (99,590) quadrature formula
 Nonlocal Correlation:  VV10 with C = 0.0100 and b = 6.00 and scale = 1.00000
 Grid used for NLC:  SG-1 standard quadrature
 SCF converges when RMS gradient is below 1.0E-08
Using Q-Chem read-in guess as SCF_GUESS READ specified.

 using 16 threads for integral computing
 -------------------------------------------------------
 OpenMP Integral computing Module                
 Release: version 1.0, May 2013, Q-Chem Inc. Pittsburgh 
 -------------------------------------------------------
 using 16 threads for integral computing
 -------------------------------------------------------
 OpenMP Integral computing Module                
 Release: version 1.0, May 2013, Q-Chem Inc. Pittsburgh 
 -------------------------------------------------------
TIMEINFO->: J/JK contribution 62.52 sec.
 -------------------------------------------------------
 OpenMP BLAS3 based DFT computing Module                
 Release: version 1.0, May 2013, Q-Chem Inc. Pittsburgh 
 -------------------------------------------------------
 -------------------------------------------------------
 OpenMP BLAS3 based DFT computing Module                
 Release: version 1.0, May 2013, Q-Chem Inc. Pittsburgh 
 -------------------------------------------------------
 -------------------------------------------------------
 OpenMP BLAS3 based DFT computing Module                
 Release: version 1.0, May 2013, Q-Chem Inc. Pittsburgh 
 -------------------------------------------------------
 ---------------------------------------
  Cycle       Energy        RMS Gradient
 ---------------------------------------
    1    -398.8236067298      2.21E-10 Normal BFGS step
TIMEINFO->: J/JK contribution 65.46 sec.
   GDM::WARNING energy changes are now smaller than effective accuracy.
   GDM::        calculation will continue, but THRESH should be increased
   GDM::        or SCF_CONVERGENCE decreased.
   GDM::        effective_thresh =   9.000000000000000E-011
 Nonlocal correlation =     0.0242078075
    2    -398.8236067298      8.04E-11 Convergence criterion met
 ---------------------------------------
 wB97M-V orbitals are now ready for the wB97M(2) calculation.
 wB97M(2) energy = Exch (0.62194 SRHF + 1.0 LRHF + wB97M(2)_EXCH) + 
               Corr (wB97M(2)_CORR + 0.34096 MP2 + 0.65904 VV10(b=10))
 SCF time:  CPU 254.83 s  wall 16.03 s
 SCF   energy in the final basis set = -398.74618017
 Total energy in the final basis set = -398.74618017
 
 Components of the MP2 correlation energy:
        aaaa  correlation energy =        -0.0282631389 au
        abab  correlation energy =        -0.1704107619 au
        bbbb  correlation energy =        -0.0282631389 au
        non-Brillouin singles    =        -0.0000000000 au

 Total  MP2   correlation energy =                    -0.22693704 au
        MP2         total energy =                  -398.97311721 au
 
 --------------------------------------------------------------
 
                    Orbital Energies (a.u.)
 --------------------------------------------------------------
 
 Alpha MOs
 -- Occupied --
-88.893  -7.825  -5.735  -5.729  -5.729  -0.539  -0.221  -0.081
 -0.081
 -- Virtual --
  0.129   0.195   0.210   0.210   0.259   0.319   0.351   0.351
  0.375   0.375   0.390   0.410   0.410   0.451   0.537   0.590
  0.590   0.596   0.673   0.673   0.714   0.714   0.722   0.722
  0.731   0.731   0.779   0.801   0.801   0.857   0.896   0.896
  0.929   0.942   0.942   1.088   1.301   1.351   1.351   1.465
  1.465   1.489   1.489   1.512   1.582   1.582   1.627   1.627
  1.645   1.645   1.650   1.650   1.663   1.663   1.725   1.759
  1.759   1.800   1.800   1.823   1.891   1.891   1.913   1.984
  1.984   2.128   2.128   2.247   2.388   2.388   2.533   2.746
  3.008   3.008   3.017   3.017   3.160   3.311   3.311   3.465
  3.465   3.656   3.686   3.686   3.690   3.690   3.703   3.703
  3.837   3.867   3.867   3.867   3.867   3.938   3.938   4.035
  4.035   4.303   4.637   4.637   4.731   5.331   5.331   6.170
  6.589   6.589   6.925   6.925   7.201   7.311   7.311   7.945
  8.445   8.445   8.505   8.505   8.595   9.115   9.115   9.469
  9.965   9.965  10.113  10.166  10.166  11.357  16.042  16.042
 16.758  18.552  18.552  18.560  18.560  18.758  18.758  19.138
 28.306  31.550  31.550  31.666  31.666  32.163  45.795  45.795
 46.469  55.495  55.495  55.496  55.496  55.497  55.497  55.498
 55.499  55.499  65.669  65.669  65.672  65.672  65.767  65.767
 65.913  82.251  93.446  93.448  93.533  93.533  93.860 145.193
145.193 145.674 387.833
 --------------------------------------------------------------
 
          Ground-State Mulliken Net Atomic Charges

     Atom                 Charge (a.u.)
  ----------------------------------------
      1 S                    -0.912250
      2 H                    -0.087750
  ----------------------------------------
  Sum of atomic charges =    -1.000000

 -----------------------------------------------------------------
                    Cartesian Multipole Moments
 -----------------------------------------------------------------
    Charge (ESU x 10^10)
                -4.8032
    Dipole Moment (Debye)
         X       0.0000      Y       0.0000      Z       0.1490
       Tot       0.1490
    Quadrupole Moments (Debye-Ang)
        XX     -22.0088     XY       0.0000     YY     -22.0088
        XZ       0.0000     YZ      -0.0000     ZZ     -17.6333
    Octopole Moments (Debye-Ang^2)
       XXX       0.0000    XXY       0.0000    XYY       0.0000
       YYY       0.0000    XXZ      -1.5711    XYZ      -0.0000
       YYZ      -1.5711    XZZ       0.0000    YZZ       0.0000
       ZZZ      -4.1164
    Hexadecapole Moments (Debye-Ang^3)
      XXXX     -56.4866   XXXY       0.0000   XXYY     -18.8289
      XYYY       0.0000   YYYY     -56.4866   XXXZ       0.0000
      XXYZ      -0.0000   XYYZ       0.0000   YYYZ      -0.0000
      XXZZ     -17.1289   XYZZ       0.0000   YYZZ     -17.1289
      XZZZ       0.0000   YZZZ      -0.0000   ZZZZ     -43.3638
 -----------------------------------------------------------------
Archival summary:
1\1\n0057.mhg0\SP\ProcedureUnspecified\BasisUnspecified\11(1-,1)\yhljason\FriNov612:38:132020FriNov612:38:132020\0\\#,ProcedureUnspecified,BasisUnspecified,\\-1,1\S\H,1,1.3432\\\@

 Total job time:  85.48s(wall), 1352.84s(cpu) 
 Fri Nov  6 12:38:13 2020

        *************************************************************
        *                                                           *
        *  Thank you very much for using Q-Chem.  Have a nice day.  *
        *                                                           *
        *************************************************************


 
User input: 5 of 6 
 
Q-Chem Developer Version!
                  Welcome to Q-Chem
     A Quantum Leap Into The Future Of Chemistry


 Q-Chem 5.1, Q-Chem, Inc., Pleasanton, CA (2018)

 Yihan Shao,  Zhengting Gan,  E. Epifanovsky,  A. T. B. Gilbert,  M. Wormit,  
 J. Kussmann,  A. W. Lange,  A. Behn,  Jia Deng,  Xintian Feng,  D. Ghosh,  
 M. Goldey,  P. R. Horn,  L. D. Jacobson,  I. Kaliman,  T. Kus,  A. Landau,  
 Jie Liu,  E. I. Proynov,  R. M. Richard,  R. P. Steele,  E. J. Sundstrom,  
 H. L. Woodcock III,  P. M. Zimmerman,  D. Zuev,  B. Albrecht,  E. Alguire,  
 S. A. Baeppler,  D. Barton,  Z. Benda,  Y. A. Bernard,  E. J. Berquist,  
 K. B. Bravaya,  H. Burton,  D. Casanova,  Chun-Min Chang,  Yunqing Chen,  
 A. Chien,  K. D. Closser,  M. P. Coons,  S. Coriani,  S. Dasgupta,  
 A. L. Dempwolff,  M. Diedenhofen,  Hainam Do,  R. G. Edgar,  Po-Tung Fang,  
 S. Faraji,  S. Fatehi,  Qingguo Feng,  K. D. Fenk,  J. Fosso-Tande,  
 Qinghui Ge,  A. Ghysels,  G. Gidofalvi,  J. Gomes,  J. Gonthier,  A. Gunina,  
 D. Hait,  M. W. D. Hanson-Heine,  P. H. P. Harbach,  A. W. Hauser,  
 J. E. Herr,  E. G. Hohenstein,  Z. C. Holden,  Kerwin Hui,  B. C. Huynh,  
 T.-C. Jagau,  Hyunjun Ji,  B. Kaduk,  K. Khistyaev,  Jaehoon Kim,  
 P. Klunzinger,  K. Koh,  D. Kosenkov,  L. Koulias,  T. Kowalczyk,  
 C. M. Krauter,  A. Kunitsa,  Ka Un Lao,  A. Laurent,  K. V. Lawler,  
 Joonho Lee,  D. Lefrancois,  S. Lehtola,  D. S. Levine,  Yi-Pei Li,  
 You-Sheng Lin,  Fenglai Liu,  E. Livshits,  A. Luenser,  P. Manohar,  
 E. Mansoor,  S. F. Manzer,  Shan-Ping Mao,  Yuezhi Mao,  N. Mardirossian,  
 A. V. Marenich,  T. Markovich,  L. A. Martinez-Martinez,  S. A. Maurer,  
 N. J. Mayhall,  S. C. McKenzie,  J.-M. Mewes,  A. F. Morrison,  
 J. W. Mullinax,  K. Nanda,  T. S. Nguyen-Beck,  R. Olivares-Amaya,  
 J. A. Parkhill,  T. M. Perrine,  F. Plasser,  P. Pokhilko,  S. Prager,  
 A. Prociuk,  E. Ramos,  D. R. Rehn,  F. Rob,  M. Schneider,  N. Sergueev,  
 S. M. Sharada,  S. Sharma,  D. W. Small,  T. Stauch,  T. Stein,  
 Yu-Chuan Su,  A. J. W. Thom,  A. Tkatchenko,  T. Tsuchimochi,  N. M. Tubman,  
 L. Vogt,  M. L. Vidal,  O. Vydrov,  M. A. Watson,  J. Wenzel,  
 M. de Wergifosse,  T. A. Wesolowski,  A. White,  J. Witte,  A. Yamada,  
 Jun Yang,  K. Yao,  S. Yeganeh,  S. R. Yost,  Zhi-Qiang You,  A. Zech,  
 Igor Ying Zhang,  Xing Zhang,  Yan Zhao,  Ying Zhu,  B. R. Brooks,  
 G. K. L. Chan,  C. J. Cramer,  M. S. Gordon,  W. J. Hehre,  A. Klamt,  
 M. W. Schmidt,  C. D. Sherrill,  D. G. Truhlar,  A. Aspuru-Guzik,  R. Baer,  
 A. T. Bell,  N. A. Besley,  Jeng-Da Chai,  A. E. DePrince, III,  
 R. A. DiStasio Jr.,  A. Dreuw,  B. D. Dunietz,  T. R. Furlani,  
 Chao-Ping Hsu,  Yousung Jung,  Jing Kong,  D. S. Lambrecht,  WanZhen Liang,  
 C. Ochsenfeld,  V. A. Rassolov,  L. V. Slipchenko,  J. E. Subotnik,  
 T. Van Voorhis,  J. M. Herbert,  A. I. Krylov,  P. M. W. Gill,  M. Head-Gordon

 Contributors to earlier versions of Q-Chem not listed above: 
 R. D. Adamson,  B. Austin,  J. Baker,  G. J. O. Beran,  K. Brandhorst,  
 S. T. Brown,  E. F. C. Byrd,  A. K. Chakraborty,  C.-L. Cheng,  
 Siu Hung Chien,  D. M. Chipman,  D. L. Crittenden,  H. Dachsel,  
 R. J. Doerksen,  A. D. Dutoi,  L. Fusti-Molnar,  W. A. Goddard III,  
 A. Golubeva-Zadorozhnaya,  S. R. Gwaltney,  G. Hawkins,  A. Heyden,  
 S. Hirata,  G. Kedziora,  F. J. Keil,  C. Kelley,  Jihan Kim,  R. A. King,  
 R. Z. Khaliullin,  P. P. Korambath,  W. Kurlancheek,  A. M. Lee,  M. S. Lee,  
 S. V. Levchenko,  Ching Yeh Lin,  D. Liotard,  R. C. Lochan,  I. Lotan,  
 P. E. Maslen,  N. Nair,  D. P. O'Neill,  D. Neuhauser,  E. Neuscamman,  
 C. M. Oana,  R. Olson,  B. Peters,  R. Peverati,  P. A. Pieniazek,  
 Y. M. Rhee,  J. Ritchie,  M. A. Rohrdanz,  E. Rosta,  N. J. Russ,  
 H. F. Schaefer III,  N. E. Schultz,  N. Shenvi,  A. C. Simmonett,  A. Sodt,  
 D. Stuck,  K. S. Thanthiriwatte,  V. Vanovschi,  Tao Wang,  A. Warshel,  
 C. F. Williams,  Q. Wu,  X. Xu,  W. Zhang

 Please cite Q-Chem as follows:
 Y. Shao et al., Mol. Phys. 113, 184-215 (2015)
 DOI: 10.1080/00268976.2014.952696

 Q-Chem 5.1.1 for Intel X86 EM64T Linux

 Parts of Q-Chem use Armadillo 8.300.2 (Tropical Shenanigans).
 http://arma.sourceforge.net/

 Q-Chem begins on Fri Nov  6 12:38:13 2020  

Host: n0057.mhg0
0

     Scratch files written to /local/scratch/users/yhljason/SH-_wB97M2_aug-cc-pcVQZ.inp20201106122542//
The previous job contains 0 fragments, simply inherited here
Input Ideriv = 2
Curr. Ideriv = -1
Max.  Ideriv = 2
Input Ideriv = 1
Curr. Ideriv = 2
Max.  Ideriv = 1

Checking the input file for inconsistencies... 	...done.

--------------------------------------------------------------
User input:
--------------------------------------------------------------
$molecule
read
$end

$rem

jobtype sp
method wb97m-v
xc_grid 000099000590
basis aug-cc-pcVQZ
max_scf_cycles 200
thresh 14
scf_convergence 8
mem_total 128000
cc_memory 96000
cc_backend xm
mem_static 1500
symmetry false
sym_ignore true
scf_guess read
unrestricted false
scf_algorithm gdm
n_frozen_core 0
gen_scfman true
$end

$multipole_field
Z -0.0001
$end



--------------------------------------------------------------
 ----------------------------------------------------------------
             Standard Nuclear Orientation (Angstroms)
    I     Atom           X                Y                Z
 ----------------------------------------------------------------
    1      S       0.0000000000     0.0000000000     0.0000000000
    2      H       0.0000000000     0.0000000000     1.3432000000
 ----------------------------------------------------------------
 Nuclear Repulsion Energy =     6.3034807719 hartrees
 There are        9 alpha and        9 beta electrons
 Requested basis set is aug-cc-pCVQZ
 There are 48 shells and 180 basis functions

 Total QAlloc Memory Limit 128000 MB
 Mega-Array Size      1467 MB
 MEM_STATIC part      1500 MB

                       Distance Matrix (Angstroms)
             S (  1)
   H (  2)  1.343200
 
 Applying Cartesian multipole field
    Component          Value
    ---------          -----
     (0,0,1)       -1.00000E-04
 Nucleus-field energy     =    -0.0002538280 hartrees
 A cutoff of  1.0D-14 yielded   1176 shell pairs
 There are     16684 function pairs (     27154 Cartesian)
 
 -------------------------------------------------------
 OpenMP Integral Computing Module                       
 Release: version 1.0, May 2013, Q-Chem Inc. Pittsburgh 
 -------------------------------------------------------
 Integral Job Info:
 Integral job number is                      11
 Integral operator is                         1
 short-range coefficients              15000000
 long-range coefficients              100000000
 Omega coefficients                         300
 if combine SR and LR in K                    1
 Integral screening is                        0
 Integral computing path is                   2
 max size of driver memory is           3200000
 size of driver memory is               1704330
 size of scratch memory is             28840424
 max col of scratch BK array              50625
 max len of scratch array in speh3         2114
 max len of scratch index in speh4           50
 max int batch size is                      520
 min int batch size is                       52
 fixed nKL is                                21
 max L of basis functions is                  4
 order of int derivative is                   0
 number of shells is                         48
 number of basis is                         229
 number of cartesian basis is               229
 number of contracted shell pairs          1176
 number of primitive shell pairs           5239
 maxK2 (contraction) of shell pair          169
 max number of K2 of shell pair               1
 max number of CS2 of shell pair            122
 max number of PS2 of shell pair           1014
 mem total for path MDJ                  642646
 -------------------------------------------------------
 Smallest overlap matrix eigenvalue = 2.76E-05
 Guess MOs from SCF MO coefficient file

 -----------------------------------------------------------------------
  General SCF calculation program by
  Eric Jon Sundstrom, Paul Horn, Yuezhi Mao, Dmitri Zuev, Alec White,
  David Stuck, Shaama M.S., Shane Yost, Joonho Lee, David Small,
  Daniel Levine, Susi Lehtola, Hugh Burton, Evgeny Epifanovsky
 -----------------------------------------------------------------------
 Exchange:     0.1500 Hartree-Fock + 1.0000 wB97M-V + LR-HF
 Correlation:  1.0000 wB97M-V
 Using Euler-Maclaurin-Lebedev (99,590) quadrature formula
 Nonlocal Correlation:  VV10 with C = 0.0100 and b = 6.00 and scale = 1.00000
 Grid used for NLC:  SG-1 standard quadrature
 using 16 threads for integral computing
 -------------------------------------------------------
 OpenMP Integral computing Module                
 Release: version 1.0, May 2013, Q-Chem Inc. Pittsburgh 
 -------------------------------------------------------
 using 16 threads for integral computing
 -------------------------------------------------------
 OpenMP Integral computing Module                
 Release: version 1.0, May 2013, Q-Chem Inc. Pittsburgh 
 -------------------------------------------------------
 -------------------------------------------------------
 OpenMP BLAS3 based DFT computing Module                
 Release: version 1.0, May 2013, Q-Chem Inc. Pittsburgh 
 -------------------------------------------------------
 -------------------------------------------------------
 OpenMP BLAS3 based DFT computing Module                
 Release: version 1.0, May 2013, Q-Chem Inc. Pittsburgh 
 -------------------------------------------------------
 -------------------------------------------------------
 OpenMP BLAS3 based DFT computing Module                
 Release: version 1.0, May 2013, Q-Chem Inc. Pittsburgh 
 -------------------------------------------------------
 Nonlocal correlation = 0.074933446340
 A restricted SCF calculation will be
 performed using GDM
 SCF converges when RMS gradient is below 1.0e-08
 ---------------------------------------
  Cycle       Energy        RMS Gradient
 ---------------------------------------
 Nonlocal correlation = 7.493344041558e-02
    1    -398.8236184519      3.62e-04   Normal BFGS step
 Nonlocal correlation = 7.493329266209e-02
    2    -398.8236191829      1.91e-04   Normal BFGS step
 Nonlocal correlation = 7.493343241240e-02
    3    -398.8236193158      1.91e-05   Normal BFGS step
 Nonlocal correlation = 7.493339045670e-02
    4    -398.8236193211      7.47e-06   Normal BFGS step
 Nonlocal correlation = 7.493339627698e-02
    5    -398.8236193217      1.90e-06   Normal BFGS step
 Nonlocal correlation = 7.493339787590e-02
    6    -398.8236193217      9.17e-07   Normal BFGS step
 Nonlocal correlation = 7.493339809342e-02
    7    -398.8236193217      2.26e-07   Normal BFGS step
 Nonlocal correlation = 7.493339808477e-02
    8    -398.8236193217      2.22e-08   Normal BFGS step
 Nonlocal correlation = 7.493339809273e-02
    9    -398.8236193217      8.31e-09  Convergence criterion met
 ---------------------------------------
 SCF time:   CPU 739.16s  wall 46.00s 
 SCF   energy in the final basis set =     -398.8236193217
 Total energy in the final basis set =     -398.8236193217
 
 --------------------------------------------------------------
 
                    Orbital Energies (a.u.)
 --------------------------------------------------------------
 
 Alpha MOs
 -- Occupied --
-88.893  -7.825  -5.735  -5.729  -5.729  -0.539  -0.221  -0.081
 -0.081
 -- Virtual --
  0.130   0.194   0.210   0.210   0.260   0.320   0.351   0.351
  0.375   0.375   0.390   0.410   0.410   0.451   0.537   0.590
  0.590   0.596   0.673   0.673   0.714   0.714   0.722   0.722
  0.731   0.731   0.779   0.801   0.801   0.858   0.896   0.896
  0.929   0.942   0.942   1.088   1.301   1.352   1.352   1.465
  1.465   1.489   1.489   1.512   1.582   1.582   1.627   1.627
  1.646   1.646   1.650   1.650   1.663   1.663   1.725   1.759
  1.759   1.800   1.800   1.823   1.891   1.891   1.913   1.984
  1.984   2.129   2.129   2.247   2.388   2.388   2.534   2.746
  3.008   3.008   3.018   3.018   3.160   3.311   3.311   3.465
  3.465   3.656   3.686   3.686   3.690   3.690   3.703   3.703
  3.837   3.867   3.867   3.868   3.868   3.938   3.938   4.035
  4.035   4.303   4.637   4.637   4.731   5.331   5.331   6.170
  6.589   6.589   6.925   6.925   7.201   7.311   7.311   7.945
  8.445   8.445   8.505   8.505   8.595   9.116   9.116   9.469
  9.965   9.965  10.113  10.166  10.166  11.357  16.042  16.042
 16.758  18.552  18.552  18.560  18.560  18.759  18.759  19.138
 28.306  31.550  31.550  31.666  31.666  32.163  45.795  45.795
 46.469  55.496  55.496  55.496  55.496  55.497  55.497  55.499
 55.499  55.499  65.669  65.669  65.672  65.672  65.767  65.767
 65.913  82.251  93.446  93.448  93.533  93.533  93.860 145.193
145.193 145.674 387.833
 --------------------------------------------------------------
 
          Ground-State Mulliken Net Atomic Charges

     Atom                 Charge (a.u.)
  ----------------------------------------
      1 S                    -0.914592
      2 H                    -0.085408
  ----------------------------------------
  Sum of atomic charges =    -1.000000

 -----------------------------------------------------------------
                    Cartesian Multipole Moments
 -----------------------------------------------------------------
    Charge (ESU x 10^10)
                -4.8032
    Dipole Moment (Debye)
         X       0.0000      Y       0.0000      Z       0.1711
       Tot       0.1711
    Quadrupole Moments (Debye-Ang)
        XX     -22.0111     XY      -0.0000     YY     -22.0111
        XZ       0.0000     YZ       0.0000     ZZ     -17.6251
    Octopole Moments (Debye-Ang^2)
       XXX       0.0000    XXY       0.0000    XYY       0.0000
       YYY       0.0000    XXZ      -1.5422    XYZ       0.0000
       YYZ      -1.5422    XZZ       0.0000    YZZ       0.0000
       ZZZ      -4.0402
    Hexadecapole Moments (Debye-Ang^3)
      XXXX     -56.5089   XXXY      -0.0000   XXYY     -18.8363
      XYYY      -0.0000   YYYY     -56.5089   XXXZ       0.0000
      XXYZ      -0.0000   XYYZ       0.0000   YYYZ      -0.0000
      XXZZ     -17.1253   XYZZ       0.0000   YYZZ     -17.1253
      XZZZ       0.0000   YZZZ       0.0000   ZZZZ     -43.3039
 -----------------------------------------------------------------
Archival summary:
1\1\n0057.mhg0\SP\ProcedureUnspecified\BasisUnspecified\11(1-,1)\yhljason\FriNov612:39:002020FriNov612:39:002020\0\\#,ProcedureUnspecified,BasisUnspecified,\\-1,1\S\H,1,1.3432\\\@

 Total job time:  47.18s(wall), 751.98s(cpu) 
 Fri Nov  6 12:39:00 2020

        *************************************************************
        *                                                           *
        *  Thank you very much for using Q-Chem.  Have a nice day.  *
        *                                                           *
        *************************************************************


 
User input: 6 of 6 
 
Q-Chem Developer Version!
                  Welcome to Q-Chem
     A Quantum Leap Into The Future Of Chemistry


 Q-Chem 5.1, Q-Chem, Inc., Pleasanton, CA (2018)

 Yihan Shao,  Zhengting Gan,  E. Epifanovsky,  A. T. B. Gilbert,  M. Wormit,  
 J. Kussmann,  A. W. Lange,  A. Behn,  Jia Deng,  Xintian Feng,  D. Ghosh,  
 M. Goldey,  P. R. Horn,  L. D. Jacobson,  I. Kaliman,  T. Kus,  A. Landau,  
 Jie Liu,  E. I. Proynov,  R. M. Richard,  R. P. Steele,  E. J. Sundstrom,  
 H. L. Woodcock III,  P. M. Zimmerman,  D. Zuev,  B. Albrecht,  E. Alguire,  
 S. A. Baeppler,  D. Barton,  Z. Benda,  Y. A. Bernard,  E. J. Berquist,  
 K. B. Bravaya,  H. Burton,  D. Casanova,  Chun-Min Chang,  Yunqing Chen,  
 A. Chien,  K. D. Closser,  M. P. Coons,  S. Coriani,  S. Dasgupta,  
 A. L. Dempwolff,  M. Diedenhofen,  Hainam Do,  R. G. Edgar,  Po-Tung Fang,  
 S. Faraji,  S. Fatehi,  Qingguo Feng,  K. D. Fenk,  J. Fosso-Tande,  
 Qinghui Ge,  A. Ghysels,  G. Gidofalvi,  J. Gomes,  J. Gonthier,  A. Gunina,  
 D. Hait,  M. W. D. Hanson-Heine,  P. H. P. Harbach,  A. W. Hauser,  
 J. E. Herr,  E. G. Hohenstein,  Z. C. Holden,  Kerwin Hui,  B. C. Huynh,  
 T.-C. Jagau,  Hyunjun Ji,  B. Kaduk,  K. Khistyaev,  Jaehoon Kim,  
 P. Klunzinger,  K. Koh,  D. Kosenkov,  L. Koulias,  T. Kowalczyk,  
 C. M. Krauter,  A. Kunitsa,  Ka Un Lao,  A. Laurent,  K. V. Lawler,  
 Joonho Lee,  D. Lefrancois,  S. Lehtola,  D. S. Levine,  Yi-Pei Li,  
 You-Sheng Lin,  Fenglai Liu,  E. Livshits,  A. Luenser,  P. Manohar,  
 E. Mansoor,  S. F. Manzer,  Shan-Ping Mao,  Yuezhi Mao,  N. Mardirossian,  
 A. V. Marenich,  T. Markovich,  L. A. Martinez-Martinez,  S. A. Maurer,  
 N. J. Mayhall,  S. C. McKenzie,  J.-M. Mewes,  A. F. Morrison,  
 J. W. Mullinax,  K. Nanda,  T. S. Nguyen-Beck,  R. Olivares-Amaya,  
 J. A. Parkhill,  T. M. Perrine,  F. Plasser,  P. Pokhilko,  S. Prager,  
 A. Prociuk,  E. Ramos,  D. R. Rehn,  F. Rob,  M. Schneider,  N. Sergueev,  
 S. M. Sharada,  S. Sharma,  D. W. Small,  T. Stauch,  T. Stein,  
 Yu-Chuan Su,  A. J. W. Thom,  A. Tkatchenko,  T. Tsuchimochi,  N. M. Tubman,  
 L. Vogt,  M. L. Vidal,  O. Vydrov,  M. A. Watson,  J. Wenzel,  
 M. de Wergifosse,  T. A. Wesolowski,  A. White,  J. Witte,  A. Yamada,  
 Jun Yang,  K. Yao,  S. Yeganeh,  S. R. Yost,  Zhi-Qiang You,  A. Zech,  
 Igor Ying Zhang,  Xing Zhang,  Yan Zhao,  Ying Zhu,  B. R. Brooks,  
 G. K. L. Chan,  C. J. Cramer,  M. S. Gordon,  W. J. Hehre,  A. Klamt,  
 M. W. Schmidt,  C. D. Sherrill,  D. G. Truhlar,  A. Aspuru-Guzik,  R. Baer,  
 A. T. Bell,  N. A. Besley,  Jeng-Da Chai,  A. E. DePrince, III,  
 R. A. DiStasio Jr.,  A. Dreuw,  B. D. Dunietz,  T. R. Furlani,  
 Chao-Ping Hsu,  Yousung Jung,  Jing Kong,  D. S. Lambrecht,  WanZhen Liang,  
 C. Ochsenfeld,  V. A. Rassolov,  L. V. Slipchenko,  J. E. Subotnik,  
 T. Van Voorhis,  J. M. Herbert,  A. I. Krylov,  P. M. W. Gill,  M. Head-Gordon

 Contributors to earlier versions of Q-Chem not listed above: 
 R. D. Adamson,  B. Austin,  J. Baker,  G. J. O. Beran,  K. Brandhorst,  
 S. T. Brown,  E. F. C. Byrd,  A. K. Chakraborty,  C.-L. Cheng,  
 Siu Hung Chien,  D. M. Chipman,  D. L. Crittenden,  H. Dachsel,  
 R. J. Doerksen,  A. D. Dutoi,  L. Fusti-Molnar,  W. A. Goddard III,  
 A. Golubeva-Zadorozhnaya,  S. R. Gwaltney,  G. Hawkins,  A. Heyden,  
 S. Hirata,  G. Kedziora,  F. J. Keil,  C. Kelley,  Jihan Kim,  R. A. King,  
 R. Z. Khaliullin,  P. P. Korambath,  W. Kurlancheek,  A. M. Lee,  M. S. Lee,  
 S. V. Levchenko,  Ching Yeh Lin,  D. Liotard,  R. C. Lochan,  I. Lotan,  
 P. E. Maslen,  N. Nair,  D. P. O'Neill,  D. Neuhauser,  E. Neuscamman,  
 C. M. Oana,  R. Olson,  B. Peters,  R. Peverati,  P. A. Pieniazek,  
 Y. M. Rhee,  J. Ritchie,  M. A. Rohrdanz,  E. Rosta,  N. J. Russ,  
 H. F. Schaefer III,  N. E. Schultz,  N. Shenvi,  A. C. Simmonett,  A. Sodt,  
 D. Stuck,  K. S. Thanthiriwatte,  V. Vanovschi,  Tao Wang,  A. Warshel,  
 C. F. Williams,  Q. Wu,  X. Xu,  W. Zhang

 Please cite Q-Chem as follows:
 Y. Shao et al., Mol. Phys. 113, 184-215 (2015)
 DOI: 10.1080/00268976.2014.952696

 Q-Chem 5.1.1 for Intel X86 EM64T Linux

 Parts of Q-Chem use Armadillo 8.300.2 (Tropical Shenanigans).
 http://arma.sourceforge.net/

 Q-Chem begins on Fri Nov  6 12:39:00 2020  

Host: n0057.mhg0
0

     Scratch files written to /local/scratch/users/yhljason/SH-_wB97M2_aug-cc-pcVQZ.inp20201106122542//
The previous job contains 0 fragments, simply inherited here
Input Ideriv = 0
Curr. Ideriv = -1
Max.  Ideriv = 0
Analytic post-HF gradients are not available with non-HF exchange
Input Ideriv = 0
Curr. Ideriv = 0
Max.  Ideriv = 0

Checking the input file for inconsistencies... 	...done.

--------------------------------------------------------------
User input:
--------------------------------------------------------------
$molecule
read
$end

$rem

jobtype sp
exchange wb97m(2)
xc_grid 000099000590
basis aug-cc-pcVQZ
max_scf_cycles 200
thresh 14
scf_convergence 8
mem_total 128000
cc_memory 96000
cc_backend xm
mem_static 1500
symmetry false
sym_ignore true
scf_guess read
unrestricted false
scf_algorithm gdm
n_frozen_core 0
$end

$multipole_field
Z -0.0001
$end


--------------------------------------------------------------
 ----------------------------------------------------------------
             Standard Nuclear Orientation (Angstroms)
    I     Atom           X                Y                Z
 ----------------------------------------------------------------
    1      S       0.0000000000     0.0000000000     0.0000000000
    2      H       0.0000000000     0.0000000000     1.3432000000
 ----------------------------------------------------------------
 Nuclear Repulsion Energy =     6.3034807719 hartrees
 There are        9 alpha and        9 beta electrons
 Requested basis set is aug-cc-pCVQZ
 There are 48 shells and 180 basis functions

 Total QAlloc Memory Limit 128000 MB
 Mega-Array Size      1467 MB
 MEM_STATIC part      1500 MB

                       Distance Matrix (Angstroms)
             S (  1)
   H (  2)  1.343200
 
 Applying Cartesian multipole field
    Component          Value
    ---------          -----
     (0,0,1)       -1.00000E-04
 Nucleus-field energy     =    -0.0002538280 hartrees
 A cutoff of  1.0D-14 yielded   1176 shell pairs
 There are     16684 function pairs (     27154 Cartesian)
 
 -------------------------------------------------------
 OpenMP Integral Computing Module                       
 Release: version 1.0, May 2013, Q-Chem Inc. Pittsburgh 
 -------------------------------------------------------
 Integral Job Info:
 Integral job number is                      11
 Integral operator is                         1
 short-range coefficients              15000000
 long-range coefficients              100000000
 Omega coefficients                         300
 if combine SR and LR in K                    1
 Integral screening is                        0
 Integral computing path is                   2
 max size of driver memory is           3200000
 size of driver memory is               1704330
 size of scratch memory is             28840424
 max col of scratch BK array              50625
 max len of scratch array in speh3         2114
 max len of scratch index in speh4           50
 max int batch size is                      520
 min int batch size is                       52
 fixed nKL is                                21
 max L of basis functions is                  4
 order of int derivative is                   0
 number of shells is                         48
 number of basis is                         229
 number of cartesian basis is               229
 number of contracted shell pairs          1176
 number of primitive shell pairs           5239
 maxK2 (contraction) of shell pair          169
 max number of K2 of shell pair               1
 max number of CS2 of shell pair            122
 max number of PS2 of shell pair           1014
 mem total for path MDJ                  642646
 -------------------------------------------------------
 Smallest overlap matrix eigenvalue = 2.76E-05
 Guess MOs from SCF MO coefficient file
 Reading MOs from coefficient file
 Reading MOs from coefficient file
 Long-range K will be added via erf
 Coulomb attenuation parameter = 0.3 bohr**(-1)
 A restricted hybrid HF-DFT SCF calculation will be
 performed using Geometric Direct Minimization
 Exchange:     0.1500 Hartree-Fock + 1.0000 wB97M-V + LR-HF
 Correlation:  1.0000 wB97M-V
 Using Euler-Maclaurin-Lebedev (99,590) quadrature formula
 Nonlocal Correlation:  VV10 with C = 0.0100 and b = 6.00 and scale = 1.00000
 Grid used for NLC:  SG-1 standard quadrature
 SCF converges when RMS gradient is below 1.0E-08
Using Q-Chem read-in guess as SCF_GUESS READ specified.

 using 16 threads for integral computing
 -------------------------------------------------------
 OpenMP Integral computing Module                
 Release: version 1.0, May 2013, Q-Chem Inc. Pittsburgh 
 -------------------------------------------------------
 using 16 threads for integral computing
 -------------------------------------------------------
 OpenMP Integral computing Module                
 Release: version 1.0, May 2013, Q-Chem Inc. Pittsburgh 
 -------------------------------------------------------
TIMEINFO->: J/JK contribution 63.13 sec.
 -------------------------------------------------------
 OpenMP BLAS3 based DFT computing Module                
 Release: version 1.0, May 2013, Q-Chem Inc. Pittsburgh 
 -------------------------------------------------------
 -------------------------------------------------------
 OpenMP BLAS3 based DFT computing Module                
 Release: version 1.0, May 2013, Q-Chem Inc. Pittsburgh 
 -------------------------------------------------------
 -------------------------------------------------------
 OpenMP BLAS3 based DFT computing Module                
 Release: version 1.0, May 2013, Q-Chem Inc. Pittsburgh 
 -------------------------------------------------------
 ---------------------------------------
  Cycle       Energy        RMS Gradient
 ---------------------------------------
    1    -398.8236193217      4.41E-10 Normal BFGS step
TIMEINFO->: J/JK contribution 62.21 sec.
   GDM::WARNING energy changes are now smaller than effective accuracy.
   GDM::        calculation will continue, but THRESH should be increased
   GDM::        or SCF_CONVERGENCE decreased.
   GDM::        effective_thresh =   9.000000000000000E-011
 Nonlocal correlation =     0.0242077916
    2    -398.8236193217      1.68E-10 Convergence criterion met
 ---------------------------------------
 wB97M-V orbitals are now ready for the wB97M(2) calculation.
 wB97M(2) energy = Exch (0.62194 SRHF + 1.0 LRHF + wB97M(2)_EXCH) + 
               Corr (wB97M(2)_CORR + 0.34096 MP2 + 0.65904 VV10(b=10))
 SCF time:  CPU 251.84 s  wall 15.81 s
 SCF   energy in the final basis set = -398.74619579
 Total energy in the final basis set = -398.74619579
 
 Components of the MP2 correlation energy:
        aaaa  correlation energy =        -0.0282621760 au
        abab  correlation energy =        -0.1704073940 au
        bbbb  correlation energy =        -0.0282621760 au
        non-Brillouin singles    =        -0.0000000000 au

 Total  MP2   correlation energy =                    -0.22693175 au
        MP2         total energy =                  -398.97312753 au
 
 --------------------------------------------------------------
 
                    Orbital Energies (a.u.)
 --------------------------------------------------------------
 
 Alpha MOs
 -- Occupied --
-88.893  -7.825  -5.735  -5.729  -5.729  -0.539  -0.221  -0.081
 -0.081
 -- Virtual --
  0.130   0.194   0.210   0.210   0.260   0.320   0.351   0.351
  0.375   0.375   0.390   0.410   0.410   0.451   0.537   0.590
  0.590   0.596   0.673   0.673   0.714   0.714   0.722   0.722
  0.731   0.731   0.779   0.801   0.801   0.858   0.896   0.896
  0.929   0.942   0.942   1.088   1.301   1.352   1.352   1.465
  1.465   1.489   1.489   1.512   1.582   1.582   1.627   1.627
  1.646   1.646   1.650   1.650   1.663   1.663   1.725   1.759
  1.759   1.800   1.800   1.823   1.891   1.891   1.913   1.984
  1.984   2.129   2.129   2.247   2.388   2.388   2.534   2.746
  3.008   3.008   3.018   3.018   3.160   3.311   3.311   3.465
  3.465   3.656   3.686   3.686   3.690   3.690   3.703   3.703
  3.837   3.867   3.867   3.868   3.868   3.938   3.938   4.035
  4.035   4.303   4.637   4.637   4.731   5.331   5.331   6.170
  6.589   6.589   6.925   6.925   7.201   7.311   7.311   7.945
  8.445   8.445   8.505   8.505   8.595   9.116   9.116   9.469
  9.965   9.965  10.113  10.166  10.166  11.357  16.042  16.042
 16.758  18.552  18.552  18.560  18.560  18.759  18.759  19.138
 28.306  31.550  31.550  31.666  31.666  32.163  45.795  45.795
 46.469  55.496  55.496  55.496  55.496  55.497  55.497  55.499
 55.499  55.499  65.669  65.669  65.672  65.672  65.767  65.767
 65.913  82.251  93.446  93.448  93.533  93.533  93.860 145.193
145.193 145.674 387.833
 --------------------------------------------------------------
 
          Ground-State Mulliken Net Atomic Charges

     Atom                 Charge (a.u.)
  ----------------------------------------
      1 S                    -0.914592
      2 H                    -0.085408
  ----------------------------------------
  Sum of atomic charges =    -1.000000

 -----------------------------------------------------------------
                    Cartesian Multipole Moments
 -----------------------------------------------------------------
    Charge (ESU x 10^10)
                -4.8032
    Dipole Moment (Debye)
         X       0.0000      Y      -0.0000      Z       0.1711
       Tot       0.1711
    Quadrupole Moments (Debye-Ang)
        XX     -22.0111     XY       0.0000     YY     -22.0111
        XZ       0.0000     YZ      -0.0000     ZZ     -17.6251
    Octopole Moments (Debye-Ang^2)
       XXX       0.0000    XXY      -0.0000    XYY       0.0000
       YYY      -0.0000    XXZ      -1.5422    XYZ       0.0000
       YYZ      -1.5422    XZZ       0.0000    YZZ       0.0000
       ZZZ      -4.0402
    Hexadecapole Moments (Debye-Ang^3)
      XXXX     -56.5089   XXXY      -0.0000   XXYY     -18.8363
      XYYY      -0.0000   YYYY     -56.5089   XXXZ       0.0000
      XXYZ       0.0000   XYYZ       0.0000   YYYZ       0.0000
      XXZZ     -17.1253   XYZZ      -0.0000   YYZZ     -17.1253
      XZZZ       0.0000   YZZZ       0.0000   ZZZZ     -43.3039
 -----------------------------------------------------------------
Archival summary:
1\1\n0057.mhg0\SP\ProcedureUnspecified\BasisUnspecified\11(1-,1)\yhljason\FriNov612:40:252020FriNov612:40:252020\0\\#,ProcedureUnspecified,BasisUnspecified,\\-1,1\S\H,1,1.3432\\\@

 Total job time:  84.55s(wall), 1344.87s(cpu) 
 Fri Nov  6 12:40:25 2020

        *************************************************************
        *                                                           *
        *  Thank you very much for using Q-Chem.  Have a nice day.  *
        *                                                           *
        *************************************************************


