Q-Chem Developer Version!
                  Welcome to Q-Chem
     A Quantum Leap Into The Future Of Chemistry


 Q-Chem 5.1, Q-Chem, Inc., Pleasanton, CA (2018)

 Yihan Shao,  Zhengting Gan,  E. Epifanovsky,  A. T. B. Gilbert,  M. Wormit,  
 J. Kussmann,  A. W. Lange,  A. Behn,  Jia Deng,  Xintian Feng,  D. Ghosh,  
 M. Goldey,  P. R. Horn,  L. D. Jacobson,  I. Kaliman,  T. Kus,  A. Landau,  
 Jie Liu,  E. I. Proynov,  R. M. Richard,  R. P. Steele,  E. J. Sundstrom,  
 H. L. Woodcock III,  P. M. Zimmerman,  D. Zuev,  B. Albrecht,  E. Alguire,  
 S. A. Baeppler,  D. Barton,  Z. Benda,  Y. A. Bernard,  E. J. Berquist,  
 K. B. Bravaya,  H. Burton,  D. Casanova,  Chun-Min Chang,  Yunqing Chen,  
 A. Chien,  K. D. Closser,  M. P. Coons,  S. Coriani,  S. Dasgupta,  
 A. L. Dempwolff,  M. Diedenhofen,  Hainam Do,  R. G. Edgar,  Po-Tung Fang,  
 S. Faraji,  S. Fatehi,  Qingguo Feng,  K. D. Fenk,  J. Fosso-Tande,  
 Qinghui Ge,  A. Ghysels,  G. Gidofalvi,  J. Gomes,  J. Gonthier,  A. Gunina,  
 D. Hait,  M. W. D. Hanson-Heine,  P. H. P. Harbach,  A. W. Hauser,  
 J. E. Herr,  E. G. Hohenstein,  Z. C. Holden,  Kerwin Hui,  B. C. Huynh,  
 T.-C. Jagau,  Hyunjun Ji,  B. Kaduk,  K. Khistyaev,  Jaehoon Kim,  
 P. Klunzinger,  K. Koh,  D. Kosenkov,  L. Koulias,  T. Kowalczyk,  
 C. M. Krauter,  A. Kunitsa,  Ka Un Lao,  A. Laurent,  K. V. Lawler,  
 Joonho Lee,  D. Lefrancois,  S. Lehtola,  D. S. Levine,  Yi-Pei Li,  
 You-Sheng Lin,  Fenglai Liu,  E. Livshits,  A. Luenser,  P. Manohar,  
 E. Mansoor,  S. F. Manzer,  Shan-Ping Mao,  Yuezhi Mao,  N. Mardirossian,  
 A. V. Marenich,  T. Markovich,  L. A. Martinez-Martinez,  S. A. Maurer,  
 N. J. Mayhall,  S. C. McKenzie,  J.-M. Mewes,  A. F. Morrison,  
 J. W. Mullinax,  K. Nanda,  T. S. Nguyen-Beck,  R. Olivares-Amaya,  
 J. A. Parkhill,  T. M. Perrine,  F. Plasser,  P. Pokhilko,  S. Prager,  
 A. Prociuk,  E. Ramos,  D. R. Rehn,  F. Rob,  M. Schneider,  N. Sergueev,  
 S. M. Sharada,  S. Sharma,  D. W. Small,  T. Stauch,  T. Stein,  
 Yu-Chuan Su,  A. J. W. Thom,  A. Tkatchenko,  T. Tsuchimochi,  N. M. Tubman,  
 L. Vogt,  M. L. Vidal,  O. Vydrov,  M. A. Watson,  J. Wenzel,  
 M. de Wergifosse,  T. A. Wesolowski,  A. White,  J. Witte,  A. Yamada,  
 Jun Yang,  K. Yao,  S. Yeganeh,  S. R. Yost,  Zhi-Qiang You,  A. Zech,  
 Igor Ying Zhang,  Xing Zhang,  Yan Zhao,  Ying Zhu,  B. R. Brooks,  
 G. K. L. Chan,  C. J. Cramer,  M. S. Gordon,  W. J. Hehre,  A. Klamt,  
 M. W. Schmidt,  C. D. Sherrill,  D. G. Truhlar,  A. Aspuru-Guzik,  R. Baer,  
 A. T. Bell,  N. A. Besley,  Jeng-Da Chai,  A. E. DePrince, III,  
 R. A. DiStasio Jr.,  A. Dreuw,  B. D. Dunietz,  T. R. Furlani,  
 Chao-Ping Hsu,  Yousung Jung,  Jing Kong,  D. S. Lambrecht,  WanZhen Liang,  
 C. Ochsenfeld,  V. A. Rassolov,  L. V. Slipchenko,  J. E. Subotnik,  
 T. Van Voorhis,  J. M. Herbert,  A. I. Krylov,  P. M. W. Gill,  M. Head-Gordon

 Contributors to earlier versions of Q-Chem not listed above: 
 R. D. Adamson,  B. Austin,  J. Baker,  G. J. O. Beran,  K. Brandhorst,  
 S. T. Brown,  E. F. C. Byrd,  A. K. Chakraborty,  C.-L. Cheng,  
 Siu Hung Chien,  D. M. Chipman,  D. L. Crittenden,  H. Dachsel,  
 R. J. Doerksen,  A. D. Dutoi,  L. Fusti-Molnar,  W. A. Goddard III,  
 A. Golubeva-Zadorozhnaya,  S. R. Gwaltney,  G. Hawkins,  A. Heyden,  
 S. Hirata,  G. Kedziora,  F. J. Keil,  C. Kelley,  Jihan Kim,  R. A. King,  
 R. Z. Khaliullin,  P. P. Korambath,  W. Kurlancheek,  A. M. Lee,  M. S. Lee,  
 S. V. Levchenko,  Ching Yeh Lin,  D. Liotard,  R. C. Lochan,  I. Lotan,  
 P. E. Maslen,  N. Nair,  D. P. O'Neill,  D. Neuhauser,  E. Neuscamman,  
 C. M. Oana,  R. Olson,  B. Peters,  R. Peverati,  P. A. Pieniazek,  
 Y. M. Rhee,  J. Ritchie,  M. A. Rohrdanz,  E. Rosta,  N. J. Russ,  
 H. F. Schaefer III,  N. E. Schultz,  N. Shenvi,  A. C. Simmonett,  A. Sodt,  
 D. Stuck,  K. S. Thanthiriwatte,  V. Vanovschi,  Tao Wang,  A. Warshel,  
 C. F. Williams,  Q. Wu,  X. Xu,  W. Zhang

 Please cite Q-Chem as follows:
 Y. Shao et al., Mol. Phys. 113, 184-215 (2015)
 DOI: 10.1080/00268976.2014.952696

 Q-Chem 5.1.1 for Intel X86 EM64T Linux

 Parts of Q-Chem use Armadillo 8.300.2 (Tropical Shenanigans).
 http://arma.sourceforge.net/

 Q-Chem begins on Fri Nov  6 12:31:26 2020  

Host: n0086.mhg0
0

     Scratch files written to /local/scratch/users/yhljason/SiO_wB97M2_aug-cc-pcVQZ.inp20201106122544//
Input Ideriv = 2
Curr. Ideriv = -1
Max.  Ideriv = 2
Input Ideriv = 1
Curr. Ideriv = 2
Max.  Ideriv = 1

Checking the input file for inconsistencies... 	...done.

--------------------------------------------------------------
User input:
--------------------------------------------------------------
$molecule
0 1
Si1     0.0000  0.0000  0.0000
O2      0.0000  0.0000  1.5097
$end

$rem
jobtype sp
method wB97M-V
xc_grid 000099000590
basis aug-cc-pcVQZ
max_scf_cycles 200
thresh 14
scf_convergence 8
scf_algorithm gdm
symmetry false
sym_ignore true
unrestricted false
gen_scfman true
internal_stability_iter 15
internal_stability_davidson_iter 200
mem_total 128000
n_frozen_core 0
$end



--------------------------------------------------------------
 ----------------------------------------------------------------
             Standard Nuclear Orientation (Angstroms)
    I     Atom           X                Y                Z
 ----------------------------------------------------------------
    1      Si      0.0000000000     0.0000000000     0.0000000000
    2      O       0.0000000000     0.0000000000     1.5097000000
 ----------------------------------------------------------------
 Nuclear Repulsion Energy =    39.2580298136 hartrees
 There are       11 alpha and       11 beta electrons
 Requested basis set is aug-cc-pCVQZ
 There are 63 shells and 243 basis functions

 Total QAlloc Memory Limit 128000 MB
 Mega-Array Size       188 MB
 MEM_STATIC part       192 MB

                       Distance Matrix (Angstroms)
             Si(  1)
   O (  2)  1.509700
 
 A cutoff of  1.0D-14 yielded   1954 shell pairs
 There are     29314 function pairs (     48921 Cartesian)
 
 -------------------------------------------------------
 OpenMP Integral Computing Module                       
 Release: version 1.0, May 2013, Q-Chem Inc. Pittsburgh 
 -------------------------------------------------------
 Integral Job Info:
 Integral job number is                      11
 Integral operator is                         1
 short-range coefficients              15000000
 long-range coefficients              100000000
 Omega coefficients                         300
 if combine SR and LR in K                    1
 Integral screening is                        0
 Integral computing path is                   2
 max size of driver memory is           3200000
 size of driver memory is               1704330
 size of scratch memory is             28840424
 max col of scratch BK array              50625
 max len of scratch array in speh3         2114
 max len of scratch index in speh4           50
 max int batch size is                      520
 min int batch size is                       52
 fixed nKL is                                21
 max L of basis functions is                  4
 order of int derivative is                   0
 number of shells is                         63
 number of basis is                         313
 number of cartesian basis is               313
 number of contracted shell pairs          1954
 number of primitive shell pairs           7521
 maxK2 (contraction) of shell pair          169
 max number of K2 of shell pair               1
 max number of CS2 of shell pair            189
 max number of PS2 of shell pair           1014
 mem total for path MDJ                  712981
 -------------------------------------------------------
 Smallest overlap matrix eigenvalue = 3.71E-05

 Scale SEOQF with 1.000000e-01/1.000000e-01/1.000000e-01

 Standard Electronic Orientation quadrupole field applied
 Nucleus-field energy     =    -0.0000000020 hartrees
 Guess from superposition of atomic densities
 Warning:  Energy on first SCF cycle will be non-variational
 SAD guess density has 22.000000 electrons

 -----------------------------------------------------------------------
  General SCF calculation program by
  Eric Jon Sundstrom, Paul Horn, Yuezhi Mao, Dmitri Zuev, Alec White,
  David Stuck, Shaama M.S., Shane Yost, Joonho Lee, David Small,
  Daniel Levine, Susi Lehtola, Hugh Burton, Evgeny Epifanovsky
 -----------------------------------------------------------------------
 Exchange:     0.1500 Hartree-Fock + 1.0000 wB97M-V + LR-HF
 Correlation:  1.0000 wB97M-V
 Using Euler-Maclaurin-Lebedev (99,590) quadrature formula
 Nonlocal Correlation:  VV10 with C = 0.0100 and b = 6.00 and scale = 1.00000
 Grid used for NLC:  SG-1 standard quadrature
Running Object-Oriented RKS (RHF)
 Nonlocal correlation = 0.092667850663
 Nonlocal correlation = 0.093729902982
We will preform up to 15 macro iterations over saddle points until a stable solution is found
Energy prior to optimization (guess energy) = -364.570724164995
Begin Timing: Total SCF Calculation
Begin Timing: SCF Single Stationary Point Calculation
begin iterations for algorithm: GDM          
the SCF tolerance is set to 1.00e-08
 Nonlocal correlation = 9.236144559528e-02
    1    -364.5707241650      3.51e-01     00000  Descent step
 Nonlocal correlation = 9.335442963616e-02
    2    -364.6161073429      3.48e-01     00000  Descent step
 Nonlocal correlation = 9.293578900564e-02
    3    -364.6953378228      9.42e-02     00000  Normal BFGS step
 Nonlocal correlation = 9.297929382887e-02
    4    -364.7480752356      9.72e-03     00000  Normal BFGS step
 Nonlocal correlation = 9.297876743151e-02
    5    -364.7500172391      2.06e-03     00000  Normal BFGS step
 Nonlocal correlation = 9.297936606347e-02
    6    -364.7500595062      5.95e-04     00000  Normal BFGS step
 Nonlocal correlation = 9.297945460879e-02
    7    -364.7500625553      8.39e-05     00000  Normal BFGS step
 Nonlocal correlation = 9.297953793499e-02
    8    -364.7500626935      4.37e-05     00000  Normal BFGS step
 Nonlocal correlation = 9.297953400121e-02
    9    -364.7500627031      7.48e-06     00000  Normal BFGS step
 Nonlocal correlation = 9.297953757862e-02
   10    -364.7500627035      9.51e-07     00000  Normal BFGS step
 Nonlocal correlation = 9.297953690971e-02
   11    -364.7500627035      1.80e-07     00000  Normal BFGS step
 Nonlocal correlation = 9.297953685992e-02
   12    -364.7500627035      4.26e-08     00000  Normal BFGS step
 Nonlocal correlation = 9.297953695207e-02
   13    -364.7500627035      1.43e-08     00000  Normal BFGS step
 Nonlocal correlation = 9.297953689661e-02
   14    -364.7500627035      1.11e-08     00000  Normal BFGS step
 Nonlocal correlation = 9.297953690045e-02
   15    -364.7500627035      1.03e-09     00000 Convergence criterion met
Timing for Single Stationary Point: 179.00s (wall), 2823.01s (cpu)
Begin Timing: Stability
===================================================
Beginning Test for Internal Stability
===================================================
generating davidson guess vectors based on koopmans excitations
computing hessian-vector products by finite difference
 Nonlocal correlation = 0.092979536829
 Nonlocal correlation = 0.092979536962
 Nonlocal correlation = 0.092979536866
 Nonlocal correlation = 0.092979536925
 Nonlocal correlation = 0.092979536900
    1      3.10e+00     00000 Davidson Iteration
computing hessian-vector products by finite difference
 Nonlocal correlation = 9.297953796999e-02
 Nonlocal correlation = 9.297953583703e-02
 Nonlocal correlation = 9.297953650989e-02
 Nonlocal correlation = 9.297953729709e-02
 Nonlocal correlation = 9.297953690045e-02
    2      4.50e-01     00000 Davidson Iteration
computing hessian-vector products by finite difference
 Nonlocal correlation = 9.297954721711e-02
 Nonlocal correlation = 9.297952657416e-02
 Nonlocal correlation = 9.297953336213e-02
 Nonlocal correlation = 9.297954042917e-02
 Nonlocal correlation = 9.297953690045e-02
    3      7.46e-01     00000 Davidson Iteration
computing hessian-vector products by finite difference
 Nonlocal correlation = 9.297939711234e-02
 Nonlocal correlation = 9.297967668709e-02
 Nonlocal correlation = 9.297949336587e-02
 Nonlocal correlation = 9.297958043535e-02
 Nonlocal correlation = 9.297953690045e-02
    4      7.13e-02     00000 Davidson Iteration
computing hessian-vector products by finite difference
 Nonlocal correlation = 9.297982447518e-02
 Nonlocal correlation = 9.297924931521e-02
 Nonlocal correlation = 9.297953703134e-02
 Nonlocal correlation = 9.297953675074e-02
 Nonlocal correlation = 9.297953690045e-02
    5      4.40e-02     00000 Davidson Iteration
computing hessian-vector products by finite difference
 Nonlocal correlation = 9.297959391502e-02
 Nonlocal correlation = 9.297947986749e-02
 Nonlocal correlation = 9.297953823687e-02
 Nonlocal correlation = 9.297953557250e-02
 Nonlocal correlation = 9.297953690045e-02
    6      1.38e-02     00000 Davidson Iteration
computing hessian-vector products by finite difference
 Nonlocal correlation = 9.297953395555e-02
 Nonlocal correlation = 9.297953985251e-02
 Nonlocal correlation = 9.297954026452e-02
 Nonlocal correlation = 9.297953353266e-02
 Nonlocal correlation = 9.297953690045e-02
    7      2.63e-03     00000 Davidson Iteration
computing hessian-vector products by finite difference
 Nonlocal correlation = 9.297953524519e-02
 Nonlocal correlation = 9.297953855425e-02
 Nonlocal correlation = 9.297953983091e-02
 Nonlocal correlation = 9.297953396339e-02
 Nonlocal correlation = 9.297953690045e-02
    8      1.78e-03     00000 Davidson Iteration
computing hessian-vector products by finite difference
 Nonlocal correlation = 9.297953476896e-02
 Nonlocal correlation = 9.297953902432e-02
 Nonlocal correlation = 9.297953705059e-02
 Nonlocal correlation = 9.297953675787e-02
 Nonlocal correlation = 9.297953690045e-02
    9      9.76e-04     00000 Davidson Iteration
computing hessian-vector products by finite difference
 Nonlocal correlation = 9.297953168148e-02
 Nonlocal correlation = 9.297954210723e-02
 Nonlocal correlation = 9.297953938039e-02
 Nonlocal correlation = 9.297953442585e-02
 Nonlocal correlation = 9.297953690045e-02
   10      1.31e-03     00000 Davidson Iteration
computing hessian-vector products by finite difference
 Nonlocal correlation = 9.297954307758e-02
 Nonlocal correlation = 9.297953071756e-02
 Nonlocal correlation = 9.297954010141e-02
 Nonlocal correlation = 9.297953369126e-02
 Nonlocal correlation = 9.297953690045e-02
   11      8.47e-03     00000 Davidson Iteration
computing hessian-vector products by finite difference
 Nonlocal correlation = 9.297954449355e-02
 Nonlocal correlation = 9.297952929846e-02
 Nonlocal correlation = 9.297954128923e-02
 Nonlocal correlation = 9.297953250184e-02
 Nonlocal correlation = 9.297953690045e-02
   12      1.68e-03     00000 Davidson Iteration
computing hessian-vector products by finite difference
 Nonlocal correlation = 9.297957257287e-02
 Nonlocal correlation = 9.297950122383e-02
 Nonlocal correlation = 9.297955114800e-02
 Nonlocal correlation = 9.297952264258e-02
 Nonlocal correlation = 9.297953690045e-02
   13      3.33e-04     00000 Davidson Iteration
computing hessian-vector products by finite difference
 Nonlocal correlation = 9.297943194245e-02
 Nonlocal correlation = 9.297964185434e-02
 Nonlocal correlation = 9.297946460028e-02
 Nonlocal correlation = 9.297960920241e-02
 Nonlocal correlation = 9.297953690045e-02
   14      3.99e-02     00000 Davidson Iteration
computing hessian-vector products by finite difference
 Nonlocal correlation = 9.297935688783e-02
 Nonlocal correlation = 9.297971690816e-02
 Nonlocal correlation = 9.297965937818e-02
 Nonlocal correlation = 9.297941442664e-02
 Nonlocal correlation = 9.297953690045e-02
   15      1.62e-02     00000 Davidson Iteration
computing hessian-vector products by finite difference
 Nonlocal correlation = 9.297978673686e-02
 Nonlocal correlation = 9.297928706167e-02
 Nonlocal correlation = 9.297967458350e-02
 Nonlocal correlation = 9.297939921446e-02
 Nonlocal correlation = 9.297953690045e-02
   16      5.21e-03     00000 Davidson Iteration
computing hessian-vector products by finite difference
 Nonlocal correlation = 9.297958621601e-02
 Nonlocal correlation = 9.297948756985e-02
 Nonlocal correlation = 9.297954254385e-02
 Nonlocal correlation = 9.297953124140e-02
 Nonlocal correlation = 9.297953690045e-02
   17      1.65e-03     00000 Davidson Iteration
computing hessian-vector products by finite difference
 Nonlocal correlation = 9.297963709433e-02
 Nonlocal correlation = 9.297943670468e-02
 Nonlocal correlation = 9.297964928260e-02
 Nonlocal correlation = 9.297942451567e-02
 Nonlocal correlation = 9.297953690045e-02
   18      5.42e-04     00000 Davidson Converged
converged_eigenvalues
   0.8839
   0.8839
   0.8152
Threshold for negative eigenvalues: -1.0e-05
solution was a local minimum (stable)
===================================================
End Test for Internal Stability
===================================================
Our SCF solution is stable!
Timing for Total SCF: 1273.00s (wall), 20009.43s (cpu)
 Total energy in the final basis set =     -364.7500627035
    ==================================================
              The end of Object-Oriented SCFman       
    ==================================================
 
 --------------------------------------------------------------
 
                    Orbital Energies (a.u.)
 --------------------------------------------------------------
 
 Alpha MOs
 -- Occupied --
-66.432 -19.313  -5.472  -3.787  -3.787  -3.780  -1.066  -0.544
 -0.435  -0.435  -0.407
 -- Virtual --
 -0.009  -0.009   0.019   0.035   0.047   0.047   0.090   0.097
  0.097   0.113   0.113   0.118   0.174   0.174   0.178   0.224
  0.250   0.250   0.282   0.291   0.291   0.293   0.293   0.297
  0.297   0.339   0.339   0.368   0.389   0.419   0.419   0.548
  0.548   0.550   0.603   0.603   0.615   0.774   0.774   0.785
  0.785   0.796   0.849   0.849   0.851   0.851   0.858   0.893
  0.893   0.932   0.932   0.940   0.940   0.942   0.942   1.039
  1.049   1.049   1.080   1.080   1.086   1.176   1.247   1.247
  1.429   1.479   1.479   1.540   1.561   1.561   1.635   1.635
  1.755   1.814   1.814   1.962   1.962   1.991   2.056   2.056
  2.172   2.172   2.208   2.208   2.244   2.244   2.287   2.447
  2.447   2.452   2.452   2.467   2.467   2.604   2.604   2.641
  2.641   2.653   2.846   3.123   3.123   3.503   3.521   3.521
  3.724   3.724   3.752   3.752   3.922   3.991   3.991   4.079
  4.079   4.152   4.152   4.201   4.286   4.286   4.303   4.487
  4.487   4.534   4.534   4.925   5.117   5.130   5.130   5.908
  6.467   6.467   6.994   6.994   7.803   9.434   9.434  10.289
 10.289  10.368  10.376  10.376  10.589  10.589  10.594  10.595
 10.595  11.256  11.256  11.524  11.524  11.693  11.693  11.733
 11.960  11.960  12.204  12.406  12.406  12.835  12.835  13.017
 13.439  13.439  13.506  13.506  13.698  13.698  14.217  17.068
 18.147  21.212  21.212  21.523  21.523  22.193  32.118  32.118
 32.815  32.837  32.837  33.669  38.469  38.469  38.474  38.474
 38.479  38.479  38.488  38.488  38.501  46.427  46.427  46.664
 46.664  46.824  47.755  47.755  47.786  47.786  47.882  47.882
 48.023  54.320  63.001  63.873  63.876  64.090  64.090  64.602
100.608 100.608 101.159 102.537 102.537 102.561 102.561 102.591
102.591 102.617 115.732 115.732 116.430 197.697 197.700 197.828
197.828 197.940 215.632 265.610 395.489 395.489 396.054 900.626
 --------------------------------------------------------------
 
          Ground-State Mulliken Net Atomic Charges

     Atom                 Charge (a.u.)
  ----------------------------------------
      1 Si                    0.857525
      2 O                    -0.857525
  ----------------------------------------
  Sum of atomic charges =     0.000000

 -----------------------------------------------------------------
                    Cartesian Multipole Moments
 -----------------------------------------------------------------
    Charge (ESU x 10^10)
                 0.0000
    Dipole Moment (Debye)
         X      -0.0000      Y      -0.0000      Z      -3.3429
       Tot       3.3429
    Quadrupole Moments (Debye-Ang)
        XX     -16.4758     XY       0.0000     YY     -16.4758
        XZ      -0.0000     YZ       0.0000     ZZ     -24.1347
    Octopole Moments (Debye-Ang^2)
       XXX      -0.0000    XXY      -0.0000    XYY      -0.0000
       YYY      -0.0000    XXZ      -8.9783    XYZ       0.0000
       YYZ      -8.9783    XZZ      -0.0000    YZZ       0.0000
       ZZZ     -34.9118
    Hexadecapole Moments (Debye-Ang^3)
      XXXX     -22.2496   XXXY       0.0000   XXYY      -7.4165
      XYYY       0.0000   YYYY     -22.2496   XXXZ       0.0000
      XXYZ      -0.0000   XYYZ       0.0000   YYYZ      -0.0000
      XXZZ     -22.5671   XYZZ       0.0000   YYZZ     -22.5671
      XZZZ      -0.0000   YZZZ      -0.0000   ZZZZ    -123.6875
 -----------------------------------------------------------------
Archival summary:
1\1\n0086.mhg0\SP\ProcedureUnspecified\BasisUnspecified\i11\yhljason\FriNov612:52:572020FriNov612:52:572020\0\\#,ProcedureUnspecified,BasisUnspecified,\\0,1\Si\O,1,1.5097\\\@

 Total job time:  1291.04s(wall), 20288.66s(cpu) 
 Fri Nov  6 12:52:57 2020

        *************************************************************
        *                                                           *
        *  Thank you very much for using Q-Chem.  Have a nice day.  *
        *                                                           *
        *************************************************************


 
User input: 2 of 6 
 
Q-Chem Developer Version!
                  Welcome to Q-Chem
     A Quantum Leap Into The Future Of Chemistry


 Q-Chem 5.1, Q-Chem, Inc., Pleasanton, CA (2018)

 Yihan Shao,  Zhengting Gan,  E. Epifanovsky,  A. T. B. Gilbert,  M. Wormit,  
 J. Kussmann,  A. W. Lange,  A. Behn,  Jia Deng,  Xintian Feng,  D. Ghosh,  
 M. Goldey,  P. R. Horn,  L. D. Jacobson,  I. Kaliman,  T. Kus,  A. Landau,  
 Jie Liu,  E. I. Proynov,  R. M. Richard,  R. P. Steele,  E. J. Sundstrom,  
 H. L. Woodcock III,  P. M. Zimmerman,  D. Zuev,  B. Albrecht,  E. Alguire,  
 S. A. Baeppler,  D. Barton,  Z. Benda,  Y. A. Bernard,  E. J. Berquist,  
 K. B. Bravaya,  H. Burton,  D. Casanova,  Chun-Min Chang,  Yunqing Chen,  
 A. Chien,  K. D. Closser,  M. P. Coons,  S. Coriani,  S. Dasgupta,  
 A. L. Dempwolff,  M. Diedenhofen,  Hainam Do,  R. G. Edgar,  Po-Tung Fang,  
 S. Faraji,  S. Fatehi,  Qingguo Feng,  K. D. Fenk,  J. Fosso-Tande,  
 Qinghui Ge,  A. Ghysels,  G. Gidofalvi,  J. Gomes,  J. Gonthier,  A. Gunina,  
 D. Hait,  M. W. D. Hanson-Heine,  P. H. P. Harbach,  A. W. Hauser,  
 J. E. Herr,  E. G. Hohenstein,  Z. C. Holden,  Kerwin Hui,  B. C. Huynh,  
 T.-C. Jagau,  Hyunjun Ji,  B. Kaduk,  K. Khistyaev,  Jaehoon Kim,  
 P. Klunzinger,  K. Koh,  D. Kosenkov,  L. Koulias,  T. Kowalczyk,  
 C. M. Krauter,  A. Kunitsa,  Ka Un Lao,  A. Laurent,  K. V. Lawler,  
 Joonho Lee,  D. Lefrancois,  S. Lehtola,  D. S. Levine,  Yi-Pei Li,  
 You-Sheng Lin,  Fenglai Liu,  E. Livshits,  A. Luenser,  P. Manohar,  
 E. Mansoor,  S. F. Manzer,  Shan-Ping Mao,  Yuezhi Mao,  N. Mardirossian,  
 A. V. Marenich,  T. Markovich,  L. A. Martinez-Martinez,  S. A. Maurer,  
 N. J. Mayhall,  S. C. McKenzie,  J.-M. Mewes,  A. F. Morrison,  
 J. W. Mullinax,  K. Nanda,  T. S. Nguyen-Beck,  R. Olivares-Amaya,  
 J. A. Parkhill,  T. M. Perrine,  F. Plasser,  P. Pokhilko,  S. Prager,  
 A. Prociuk,  E. Ramos,  D. R. Rehn,  F. Rob,  M. Schneider,  N. Sergueev,  
 S. M. Sharada,  S. Sharma,  D. W. Small,  T. Stauch,  T. Stein,  
 Yu-Chuan Su,  A. J. W. Thom,  A. Tkatchenko,  T. Tsuchimochi,  N. M. Tubman,  
 L. Vogt,  M. L. Vidal,  O. Vydrov,  M. A. Watson,  J. Wenzel,  
 M. de Wergifosse,  T. A. Wesolowski,  A. White,  J. Witte,  A. Yamada,  
 Jun Yang,  K. Yao,  S. Yeganeh,  S. R. Yost,  Zhi-Qiang You,  A. Zech,  
 Igor Ying Zhang,  Xing Zhang,  Yan Zhao,  Ying Zhu,  B. R. Brooks,  
 G. K. L. Chan,  C. J. Cramer,  M. S. Gordon,  W. J. Hehre,  A. Klamt,  
 M. W. Schmidt,  C. D. Sherrill,  D. G. Truhlar,  A. Aspuru-Guzik,  R. Baer,  
 A. T. Bell,  N. A. Besley,  Jeng-Da Chai,  A. E. DePrince, III,  
 R. A. DiStasio Jr.,  A. Dreuw,  B. D. Dunietz,  T. R. Furlani,  
 Chao-Ping Hsu,  Yousung Jung,  Jing Kong,  D. S. Lambrecht,  WanZhen Liang,  
 C. Ochsenfeld,  V. A. Rassolov,  L. V. Slipchenko,  J. E. Subotnik,  
 T. Van Voorhis,  J. M. Herbert,  A. I. Krylov,  P. M. W. Gill,  M. Head-Gordon

 Contributors to earlier versions of Q-Chem not listed above: 
 R. D. Adamson,  B. Austin,  J. Baker,  G. J. O. Beran,  K. Brandhorst,  
 S. T. Brown,  E. F. C. Byrd,  A. K. Chakraborty,  C.-L. Cheng,  
 Siu Hung Chien,  D. M. Chipman,  D. L. Crittenden,  H. Dachsel,  
 R. J. Doerksen,  A. D. Dutoi,  L. Fusti-Molnar,  W. A. Goddard III,  
 A. Golubeva-Zadorozhnaya,  S. R. Gwaltney,  G. Hawkins,  A. Heyden,  
 S. Hirata,  G. Kedziora,  F. J. Keil,  C. Kelley,  Jihan Kim,  R. A. King,  
 R. Z. Khaliullin,  P. P. Korambath,  W. Kurlancheek,  A. M. Lee,  M. S. Lee,  
 S. V. Levchenko,  Ching Yeh Lin,  D. Liotard,  R. C. Lochan,  I. Lotan,  
 P. E. Maslen,  N. Nair,  D. P. O'Neill,  D. Neuhauser,  E. Neuscamman,  
 C. M. Oana,  R. Olson,  B. Peters,  R. Peverati,  P. A. Pieniazek,  
 Y. M. Rhee,  J. Ritchie,  M. A. Rohrdanz,  E. Rosta,  N. J. Russ,  
 H. F. Schaefer III,  N. E. Schultz,  N. Shenvi,  A. C. Simmonett,  A. Sodt,  
 D. Stuck,  K. S. Thanthiriwatte,  V. Vanovschi,  Tao Wang,  A. Warshel,  
 C. F. Williams,  Q. Wu,  X. Xu,  W. Zhang

 Please cite Q-Chem as follows:
 Y. Shao et al., Mol. Phys. 113, 184-215 (2015)
 DOI: 10.1080/00268976.2014.952696

 Q-Chem 5.1.1 for Intel X86 EM64T Linux

 Parts of Q-Chem use Armadillo 8.300.2 (Tropical Shenanigans).
 http://arma.sourceforge.net/

 Q-Chem begins on Fri Nov  6 12:52:57 2020  

Host: n0086.mhg0
0

     Scratch files written to /local/scratch/users/yhljason/SiO_wB97M2_aug-cc-pcVQZ.inp20201106122544//
The previous job contains 0 fragments, simply inherited here
Input Ideriv = 0
Curr. Ideriv = -1
Max.  Ideriv = 0
Analytic post-HF gradients are not available with non-HF exchange
Input Ideriv = 0
Curr. Ideriv = 0
Max.  Ideriv = 0

Checking the input file for inconsistencies... 	...done.

--------------------------------------------------------------
User input:
--------------------------------------------------------------
$molecule
read
$end

$rem
jobtype sp
exchange wB97M(2)
xc_grid 000099000590
basis aug-cc-pcVQZ
max_scf_cycles 200
thresh 14
scf_convergence 8
scf_algorithm gdm
symmetry false
sym_ignore true
unrestricted false
gen_scfman false
mem_total 128000
cc_memory 96000
cc_backend xm
mem_static 1500
n_frozen_core 0
scf_guess read
$end



--------------------------------------------------------------
 ----------------------------------------------------------------
             Standard Nuclear Orientation (Angstroms)
    I     Atom           X                Y                Z
 ----------------------------------------------------------------
    1      Si      0.0000000000     0.0000000000     0.0000000000
    2      O       0.0000000000     0.0000000000     1.5097000000
 ----------------------------------------------------------------
 Nuclear Repulsion Energy =    39.2580298136 hartrees
 There are       11 alpha and       11 beta electrons
 Requested basis set is aug-cc-pCVQZ
 There are 63 shells and 243 basis functions

 Total QAlloc Memory Limit 128000 MB
 Mega-Array Size      1467 MB
 MEM_STATIC part      1500 MB

                       Distance Matrix (Angstroms)
             Si(  1)
   O (  2)  1.509700
 
 A cutoff of  1.0D-14 yielded   1954 shell pairs
 There are     29314 function pairs (     48921 Cartesian)
 
 -------------------------------------------------------
 OpenMP Integral Computing Module                       
 Release: version 1.0, May 2013, Q-Chem Inc. Pittsburgh 
 -------------------------------------------------------
 Integral Job Info:
 Integral job number is                      11
 Integral operator is                         1
 short-range coefficients              15000000
 long-range coefficients              100000000
 Omega coefficients                         300
 if combine SR and LR in K                    1
 Integral screening is                        0
 Integral computing path is                   2
 max size of driver memory is           3200000
 size of driver memory is               1704330
 size of scratch memory is             28840424
 max col of scratch BK array              50625
 max len of scratch array in speh3         2114
 max len of scratch index in speh4           50
 max int batch size is                      520
 min int batch size is                       52
 fixed nKL is                                21
 max L of basis functions is                  4
 order of int derivative is                   0
 number of shells is                         63
 number of basis is                         313
 number of cartesian basis is               313
 number of contracted shell pairs          1954
 number of primitive shell pairs           7521
 maxK2 (contraction) of shell pair          169
 max number of K2 of shell pair               1
 max number of CS2 of shell pair            189
 max number of PS2 of shell pair           1014
 mem total for path MDJ                  712981
 -------------------------------------------------------
 Smallest overlap matrix eigenvalue = 3.71E-05

 Scale SEOQF with 1.000000e-01/1.000000e-01/1.000000e-01

 Standard Electronic Orientation quadrupole field applied
 Nucleus-field energy     =    -0.0000000020 hartrees
 Guess MOs from SCF MO coefficient file
 Reading MOs from coefficient file
 Reading MOs from coefficient file
 Long-range K will be added via erf
 Coulomb attenuation parameter = 0.3 bohr**(-1)
 A restricted hybrid HF-DFT SCF calculation will be
 performed using Geometric Direct Minimization
 Exchange:     0.1500 Hartree-Fock + 1.0000 wB97M-V + LR-HF
 Correlation:  1.0000 wB97M-V
 Using Euler-Maclaurin-Lebedev (99,590) quadrature formula
 Nonlocal Correlation:  VV10 with C = 0.0100 and b = 6.00 and scale = 1.00000
 Grid used for NLC:  SG-1 standard quadrature
 SCF converges when RMS gradient is below 1.0E-08
Using Q-Chem read-in guess as SCF_GUESS READ specified.

 using 16 threads for integral computing
 -------------------------------------------------------
 OpenMP Integral computing Module                
 Release: version 1.0, May 2013, Q-Chem Inc. Pittsburgh 
 -------------------------------------------------------
 using 16 threads for integral computing
 -------------------------------------------------------
 OpenMP Integral computing Module                
 Release: version 1.0, May 2013, Q-Chem Inc. Pittsburgh 
 -------------------------------------------------------
TIMEINFO->: J/JK contribution 168.94 sec.
 -------------------------------------------------------
 OpenMP BLAS3 based DFT computing Module                
 Release: version 1.0, May 2013, Q-Chem Inc. Pittsburgh 
 -------------------------------------------------------
 -------------------------------------------------------
 OpenMP BLAS3 based DFT computing Module                
 Release: version 1.0, May 2013, Q-Chem Inc. Pittsburgh 
 -------------------------------------------------------
 -------------------------------------------------------
 OpenMP BLAS3 based DFT computing Module                
 Release: version 1.0, May 2013, Q-Chem Inc. Pittsburgh 
 -------------------------------------------------------
 ---------------------------------------
  Cycle       Energy        RMS Gradient
 ---------------------------------------
    1    -364.7500627035      1.95E-10 Normal BFGS step
TIMEINFO->: J/JK contribution 170.07 sec.
 Nonlocal correlation =     0.0298643010
    2    -364.7500627035      9.51E-11 Convergence criterion met
 ---------------------------------------
 wB97M-V orbitals are now ready for the wB97M(2) calculation.
 wB97M(2) energy = Exch (0.62194 SRHF + 1.0 LRHF + wB97M(2)_EXCH) + 
               Corr (wB97M(2)_CORR + 0.34096 MP2 + 0.65904 VV10(b=10))
 SCF time:  CPU 660.11 s  wall 44.67 s
 SCF   energy in the final basis set = -364.61753151
 Total energy in the final basis set = -364.61753151
 
 Components of the MP2 correlation energy:
        aaaa  correlation energy =        -0.0381998171 au
        abab  correlation energy =        -0.2334368766 au
        bbbb  correlation energy =        -0.0381998171 au
        non-Brillouin singles    =        -0.0000000000 au

 Total  MP2   correlation energy =                    -0.30983651 au
        MP2         total energy =                  -364.92736802 au
 
 --------------------------------------------------------------
 
                    Orbital Energies (a.u.)
 --------------------------------------------------------------
 
 Alpha MOs
 -- Occupied --
-66.432 -19.313  -5.472  -3.787  -3.787  -3.780  -1.066  -0.544
 -0.435  -0.435  -0.407
 -- Virtual --
 -0.009  -0.009   0.019   0.035   0.047   0.047   0.090   0.097
  0.097   0.113   0.113   0.118   0.174   0.174   0.178   0.224
  0.250   0.250   0.282   0.291   0.291   0.293   0.293   0.297
  0.297   0.339   0.339   0.368   0.389   0.419   0.419   0.548
  0.548   0.550   0.603   0.603   0.615   0.774   0.774   0.785
  0.785   0.796   0.849   0.849   0.851   0.851   0.858   0.893
  0.893   0.932   0.932   0.940   0.940   0.942   0.942   1.039
  1.049   1.049   1.080   1.080   1.086   1.176   1.247   1.247
  1.429   1.479   1.479   1.540   1.561   1.561   1.635   1.635
  1.755   1.814   1.814   1.962   1.962   1.991   2.056   2.056
  2.172   2.172   2.208   2.208   2.244   2.244   2.287   2.447
  2.447   2.452   2.452   2.467   2.467   2.604   2.604   2.641
  2.641   2.653   2.846   3.123   3.123   3.503   3.521   3.521
  3.724   3.724   3.752   3.752   3.922   3.991   3.991   4.079
  4.079   4.152   4.152   4.201   4.286   4.286   4.303   4.487
  4.487   4.534   4.534   4.925   5.117   5.130   5.130   5.908
  6.467   6.467   6.994   6.994   7.803   9.434   9.434  10.289
 10.289  10.368  10.376  10.376  10.589  10.589  10.594  10.595
 10.595  11.256  11.256  11.524  11.524  11.693  11.693  11.733
 11.960  11.960  12.204  12.406  12.406  12.835  12.835  13.017
 13.439  13.439  13.506  13.506  13.698  13.698  14.217  17.068
 18.147  21.212  21.212  21.523  21.523  22.193  32.118  32.118
 32.815  32.837  32.837  33.669  38.469  38.469  38.474  38.474
 38.479  38.479  38.488  38.488  38.501  46.427  46.427  46.664
 46.664  46.824  47.755  47.755  47.786  47.786  47.882  47.882
 48.023  54.320  63.001  63.873  63.876  64.090  64.090  64.602
100.608 100.608 101.159 102.537 102.537 102.561 102.561 102.591
102.591 102.617 115.732 115.732 116.430 197.697 197.700 197.828
197.828 197.940 215.632 265.610 395.489 395.489 396.054 900.626
 --------------------------------------------------------------
 
          Ground-State Mulliken Net Atomic Charges

     Atom                 Charge (a.u.)
  ----------------------------------------
      1 Si                    0.857525
      2 O                    -0.857525
  ----------------------------------------
  Sum of atomic charges =    -0.000000

 -----------------------------------------------------------------
                    Cartesian Multipole Moments
 -----------------------------------------------------------------
    Charge (ESU x 10^10)
                -0.0000
    Dipole Moment (Debye)
         X      -0.0000      Y       0.0000      Z      -3.3429
       Tot       3.3429
    Quadrupole Moments (Debye-Ang)
        XX     -16.4758     XY       0.0000     YY     -16.4758
        XZ      -0.0000     YZ       0.0000     ZZ     -24.1347
    Octopole Moments (Debye-Ang^2)
       XXX      -0.0000    XXY      -0.0000    XYY      -0.0000
       YYY      -0.0000    XXZ      -8.9783    XYZ       0.0000
       YYZ      -8.9783    XZZ      -0.0000    YZZ       0.0000
       ZZZ     -34.9118
    Hexadecapole Moments (Debye-Ang^3)
      XXXX     -22.2496   XXXY       0.0000   XXYY      -7.4165
      XYYY       0.0000   YYYY     -22.2496   XXXZ      -0.0000
      XXYZ      -0.0000   XYYZ      -0.0000   YYYZ      -0.0000
      XXZZ     -22.5671   XYZZ       0.0000   YYZZ     -22.5671
      XZZZ      -0.0000   YZZZ       0.0000   ZZZZ    -123.6875
 -----------------------------------------------------------------
Archival summary:
1\1\n0086.mhg0\SP\ProcedureUnspecified\BasisUnspecified\i11\yhljason\FriNov612:57:072020FriNov612:57:072020\0\\#,ProcedureUnspecified,BasisUnspecified,\\0,1\Si\O,1,1.5097\\\@

 Total job time:  249.37s(wall), 3878.93s(cpu) 
 Fri Nov  6 12:57:07 2020

        *************************************************************
        *                                                           *
        *  Thank you very much for using Q-Chem.  Have a nice day.  *
        *                                                           *
        *************************************************************


 
User input: 3 of 6 
 
Q-Chem Developer Version!
                  Welcome to Q-Chem
     A Quantum Leap Into The Future Of Chemistry


 Q-Chem 5.1, Q-Chem, Inc., Pleasanton, CA (2018)

 Yihan Shao,  Zhengting Gan,  E. Epifanovsky,  A. T. B. Gilbert,  M. Wormit,  
 J. Kussmann,  A. W. Lange,  A. Behn,  Jia Deng,  Xintian Feng,  D. Ghosh,  
 M. Goldey,  P. R. Horn,  L. D. Jacobson,  I. Kaliman,  T. Kus,  A. Landau,  
 Jie Liu,  E. I. Proynov,  R. M. Richard,  R. P. Steele,  E. J. Sundstrom,  
 H. L. Woodcock III,  P. M. Zimmerman,  D. Zuev,  B. Albrecht,  E. Alguire,  
 S. A. Baeppler,  D. Barton,  Z. Benda,  Y. A. Bernard,  E. J. Berquist,  
 K. B. Bravaya,  H. Burton,  D. Casanova,  Chun-Min Chang,  Yunqing Chen,  
 A. Chien,  K. D. Closser,  M. P. Coons,  S. Coriani,  S. Dasgupta,  
 A. L. Dempwolff,  M. Diedenhofen,  Hainam Do,  R. G. Edgar,  Po-Tung Fang,  
 S. Faraji,  S. Fatehi,  Qingguo Feng,  K. D. Fenk,  J. Fosso-Tande,  
 Qinghui Ge,  A. Ghysels,  G. Gidofalvi,  J. Gomes,  J. Gonthier,  A. Gunina,  
 D. Hait,  M. W. D. Hanson-Heine,  P. H. P. Harbach,  A. W. Hauser,  
 J. E. Herr,  E. G. Hohenstein,  Z. C. Holden,  Kerwin Hui,  B. C. Huynh,  
 T.-C. Jagau,  Hyunjun Ji,  B. Kaduk,  K. Khistyaev,  Jaehoon Kim,  
 P. Klunzinger,  K. Koh,  D. Kosenkov,  L. Koulias,  T. Kowalczyk,  
 C. M. Krauter,  A. Kunitsa,  Ka Un Lao,  A. Laurent,  K. V. Lawler,  
 Joonho Lee,  D. Lefrancois,  S. Lehtola,  D. S. Levine,  Yi-Pei Li,  
 You-Sheng Lin,  Fenglai Liu,  E. Livshits,  A. Luenser,  P. Manohar,  
 E. Mansoor,  S. F. Manzer,  Shan-Ping Mao,  Yuezhi Mao,  N. Mardirossian,  
 A. V. Marenich,  T. Markovich,  L. A. Martinez-Martinez,  S. A. Maurer,  
 N. J. Mayhall,  S. C. McKenzie,  J.-M. Mewes,  A. F. Morrison,  
 J. W. Mullinax,  K. Nanda,  T. S. Nguyen-Beck,  R. Olivares-Amaya,  
 J. A. Parkhill,  T. M. Perrine,  F. Plasser,  P. Pokhilko,  S. Prager,  
 A. Prociuk,  E. Ramos,  D. R. Rehn,  F. Rob,  M. Schneider,  N. Sergueev,  
 S. M. Sharada,  S. Sharma,  D. W. Small,  T. Stauch,  T. Stein,  
 Yu-Chuan Su,  A. J. W. Thom,  A. Tkatchenko,  T. Tsuchimochi,  N. M. Tubman,  
 L. Vogt,  M. L. Vidal,  O. Vydrov,  M. A. Watson,  J. Wenzel,  
 M. de Wergifosse,  T. A. Wesolowski,  A. White,  J. Witte,  A. Yamada,  
 Jun Yang,  K. Yao,  S. Yeganeh,  S. R. Yost,  Zhi-Qiang You,  A. Zech,  
 Igor Ying Zhang,  Xing Zhang,  Yan Zhao,  Ying Zhu,  B. R. Brooks,  
 G. K. L. Chan,  C. J. Cramer,  M. S. Gordon,  W. J. Hehre,  A. Klamt,  
 M. W. Schmidt,  C. D. Sherrill,  D. G. Truhlar,  A. Aspuru-Guzik,  R. Baer,  
 A. T. Bell,  N. A. Besley,  Jeng-Da Chai,  A. E. DePrince, III,  
 R. A. DiStasio Jr.,  A. Dreuw,  B. D. Dunietz,  T. R. Furlani,  
 Chao-Ping Hsu,  Yousung Jung,  Jing Kong,  D. S. Lambrecht,  WanZhen Liang,  
 C. Ochsenfeld,  V. A. Rassolov,  L. V. Slipchenko,  J. E. Subotnik,  
 T. Van Voorhis,  J. M. Herbert,  A. I. Krylov,  P. M. W. Gill,  M. Head-Gordon

 Contributors to earlier versions of Q-Chem not listed above: 
 R. D. Adamson,  B. Austin,  J. Baker,  G. J. O. Beran,  K. Brandhorst,  
 S. T. Brown,  E. F. C. Byrd,  A. K. Chakraborty,  C.-L. Cheng,  
 Siu Hung Chien,  D. M. Chipman,  D. L. Crittenden,  H. Dachsel,  
 R. J. Doerksen,  A. D. Dutoi,  L. Fusti-Molnar,  W. A. Goddard III,  
 A. Golubeva-Zadorozhnaya,  S. R. Gwaltney,  G. Hawkins,  A. Heyden,  
 S. Hirata,  G. Kedziora,  F. J. Keil,  C. Kelley,  Jihan Kim,  R. A. King,  
 R. Z. Khaliullin,  P. P. Korambath,  W. Kurlancheek,  A. M. Lee,  M. S. Lee,  
 S. V. Levchenko,  Ching Yeh Lin,  D. Liotard,  R. C. Lochan,  I. Lotan,  
 P. E. Maslen,  N. Nair,  D. P. O'Neill,  D. Neuhauser,  E. Neuscamman,  
 C. M. Oana,  R. Olson,  B. Peters,  R. Peverati,  P. A. Pieniazek,  
 Y. M. Rhee,  J. Ritchie,  M. A. Rohrdanz,  E. Rosta,  N. J. Russ,  
 H. F. Schaefer III,  N. E. Schultz,  N. Shenvi,  A. C. Simmonett,  A. Sodt,  
 D. Stuck,  K. S. Thanthiriwatte,  V. Vanovschi,  Tao Wang,  A. Warshel,  
 C. F. Williams,  Q. Wu,  X. Xu,  W. Zhang

 Please cite Q-Chem as follows:
 Y. Shao et al., Mol. Phys. 113, 184-215 (2015)
 DOI: 10.1080/00268976.2014.952696

 Q-Chem 5.1.1 for Intel X86 EM64T Linux

 Parts of Q-Chem use Armadillo 8.300.2 (Tropical Shenanigans).
 http://arma.sourceforge.net/

 Q-Chem begins on Fri Nov  6 12:57:07 2020  

Host: n0086.mhg0
0

     Scratch files written to /local/scratch/users/yhljason/SiO_wB97M2_aug-cc-pcVQZ.inp20201106122544//
The previous job contains 0 fragments, simply inherited here
Input Ideriv = 2
Curr. Ideriv = -1
Max.  Ideriv = 2
Input Ideriv = 1
Curr. Ideriv = 2
Max.  Ideriv = 1

Checking the input file for inconsistencies... 	...done.

--------------------------------------------------------------
User input:
--------------------------------------------------------------
$molecule
read
$end

$rem

jobtype sp
method wb97m-v
xc_grid 000099000590
basis aug-cc-pcVQZ
max_scf_cycles 200
thresh 14
scf_convergence 8
mem_total 128000
cc_memory 96000
cc_backend xm
mem_static 1500
symmetry false
sym_ignore true
scf_guess read
unrestricted false
scf_algorithm gdm
n_frozen_core 0
gen_scfman true
$end

$multipole_field
Z 0.0001
$end



--------------------------------------------------------------
 ----------------------------------------------------------------
             Standard Nuclear Orientation (Angstroms)
    I     Atom           X                Y                Z
 ----------------------------------------------------------------
    1      Si      0.0000000000     0.0000000000     0.0000000000
    2      O       0.0000000000     0.0000000000     1.5097000000
 ----------------------------------------------------------------
 Nuclear Repulsion Energy =    39.2580298136 hartrees
 There are       11 alpha and       11 beta electrons
 Requested basis set is aug-cc-pCVQZ
 There are 63 shells and 243 basis functions

 Total QAlloc Memory Limit 128000 MB
 Mega-Array Size      1467 MB
 MEM_STATIC part      1500 MB

                       Distance Matrix (Angstroms)
             Si(  1)
   O (  2)  1.509700
 
 Applying Cartesian multipole field
    Component          Value
    ---------          -----
     (0,0,1)        1.00000E-04
 Nucleus-field energy     =     0.0022823356 hartrees
 A cutoff of  1.0D-14 yielded   1954 shell pairs
 There are     29314 function pairs (     48921 Cartesian)
 
 -------------------------------------------------------
 OpenMP Integral Computing Module                       
 Release: version 1.0, May 2013, Q-Chem Inc. Pittsburgh 
 -------------------------------------------------------
 Integral Job Info:
 Integral job number is                      11
 Integral operator is                         1
 short-range coefficients              15000000
 long-range coefficients              100000000
 Omega coefficients                         300
 if combine SR and LR in K                    1
 Integral screening is                        0
 Integral computing path is                   2
 max size of driver memory is           3200000
 size of driver memory is               1704330
 size of scratch memory is             28840424
 max col of scratch BK array              50625
 max len of scratch array in speh3         2114
 max len of scratch index in speh4           50
 max int batch size is                      520
 min int batch size is                       52
 fixed nKL is                                21
 max L of basis functions is                  4
 order of int derivative is                   0
 number of shells is                         63
 number of basis is                         313
 number of cartesian basis is               313
 number of contracted shell pairs          1954
 number of primitive shell pairs           7521
 maxK2 (contraction) of shell pair          169
 max number of K2 of shell pair               1
 max number of CS2 of shell pair            189
 max number of PS2 of shell pair           1014
 mem total for path MDJ                  712981
 -------------------------------------------------------
 Smallest overlap matrix eigenvalue = 3.71E-05
 Guess MOs from SCF MO coefficient file

 -----------------------------------------------------------------------
  General SCF calculation program by
  Eric Jon Sundstrom, Paul Horn, Yuezhi Mao, Dmitri Zuev, Alec White,
  David Stuck, Shaama M.S., Shane Yost, Joonho Lee, David Small,
  Daniel Levine, Susi Lehtola, Hugh Burton, Evgeny Epifanovsky
 -----------------------------------------------------------------------
 Exchange:     0.1500 Hartree-Fock + 1.0000 wB97M-V + LR-HF
 Correlation:  1.0000 wB97M-V
 Using Euler-Maclaurin-Lebedev (99,590) quadrature formula
 Nonlocal Correlation:  VV10 with C = 0.0100 and b = 6.00 and scale = 1.00000
 Grid used for NLC:  SG-1 standard quadrature
 using 16 threads for integral computing
 -------------------------------------------------------
 OpenMP Integral computing Module                
 Release: version 1.0, May 2013, Q-Chem Inc. Pittsburgh 
 -------------------------------------------------------
 using 16 threads for integral computing
 -------------------------------------------------------
 OpenMP Integral computing Module                
 Release: version 1.0, May 2013, Q-Chem Inc. Pittsburgh 
 -------------------------------------------------------
 -------------------------------------------------------
 OpenMP BLAS3 based DFT computing Module                
 Release: version 1.0, May 2013, Q-Chem Inc. Pittsburgh 
 -------------------------------------------------------
 -------------------------------------------------------
 OpenMP BLAS3 based DFT computing Module                
 Release: version 1.0, May 2013, Q-Chem Inc. Pittsburgh 
 -------------------------------------------------------
 -------------------------------------------------------
 OpenMP BLAS3 based DFT computing Module                
 Release: version 1.0, May 2013, Q-Chem Inc. Pittsburgh 
 -------------------------------------------------------
 Nonlocal correlation = 0.092979536900
 A restricted SCF calculation will be
 performed using GDM
 SCF converges when RMS gradient is below 1.0e-08
 ---------------------------------------
  Cycle       Energy        RMS Gradient
 ---------------------------------------
 Nonlocal correlation = 9.298000455350e-02
    1    -364.7501942230      1.69e-04   Normal BFGS step
 Nonlocal correlation = 9.297932070528e-02
    2    -364.7501943271      1.28e-04   Normal BFGS step
 Nonlocal correlation = 9.297953018693e-02
    3    -364.7501943777      3.18e-05   Normal BFGS step
 Nonlocal correlation = 9.297952893633e-02
    4    -364.7501943914      3.77e-06   Normal BFGS step
 Nonlocal correlation = 9.297952847489e-02
    5    -364.7501943916      8.29e-07   Normal BFGS step
 Nonlocal correlation = 9.297952798181e-02
    6    -364.7501943916      2.45e-07   Normal BFGS step
 Nonlocal correlation = 9.297952807184e-02
    7    -364.7501943916      5.55e-08   Normal BFGS step
 Nonlocal correlation = 9.297952803686e-02
    8    -364.7501943916      1.50e-08   Normal BFGS step
 Nonlocal correlation = 9.297952803038e-02
    9    -364.7501943916      2.53e-09  Convergence criterion met
 ---------------------------------------
 SCF time:   CPU 1894.81s  wall 121.00s 
 SCF   energy in the final basis set =     -364.7501943916
 Total energy in the final basis set =     -364.7501943916
 
 --------------------------------------------------------------
 
                    Orbital Energies (a.u.)
 --------------------------------------------------------------
 
 Alpha MOs
 -- Occupied --
-66.432 -19.313  -5.472  -3.787  -3.787  -3.781  -1.066  -0.544
 -0.436  -0.436  -0.407
 -- Virtual --
 -0.009  -0.009   0.020   0.034   0.047   0.047   0.090   0.097
  0.097   0.113   0.113   0.118   0.174   0.174   0.177   0.224
  0.250   0.250   0.282   0.291   0.291   0.293   0.293   0.297
  0.297   0.339   0.339   0.369   0.389   0.419   0.419   0.548
  0.548   0.550   0.603   0.603   0.615   0.774   0.774   0.785
  0.785   0.796   0.849   0.849   0.851   0.851   0.858   0.893
  0.893   0.932   0.932   0.940   0.940   0.942   0.942   1.039
  1.049   1.049   1.080   1.080   1.086   1.176   1.247   1.247
  1.429   1.479   1.479   1.540   1.560   1.560   1.635   1.635
  1.755   1.814   1.814   1.961   1.961   1.991   2.056   2.056
  2.172   2.172   2.208   2.208   2.244   2.244   2.287   2.447
  2.447   2.452   2.452   2.467   2.467   2.604   2.604   2.641
  2.641   2.653   2.846   3.123   3.123   3.503   3.521   3.521
  3.724   3.724   3.752   3.752   3.922   3.991   3.991   4.079
  4.079   4.152   4.152   4.201   4.286   4.286   4.303   4.487
  4.487   4.534   4.534   4.925   5.117   5.130   5.130   5.908
  6.467   6.467   6.994   6.994   7.803   9.434   9.434  10.289
 10.289  10.367  10.376  10.376  10.589  10.589  10.594  10.595
 10.595  11.256  11.256  11.524  11.524  11.693  11.693  11.733
 11.960  11.960  12.204  12.406  12.406  12.835  12.835  13.017
 13.439  13.439  13.506  13.506  13.698  13.698  14.217  17.068
 18.147  21.211  21.212  21.523  21.523  22.193  32.118  32.118
 32.815  32.837  32.837  33.669  38.469  38.469  38.474  38.474
 38.479  38.479  38.488  38.488  38.501  46.427  46.427  46.664
 46.664  46.824  47.755  47.755  47.786  47.786  47.882  47.882
 48.023  54.320  63.001  63.873  63.876  64.090  64.090  64.602
100.608 100.608 101.159 102.537 102.537 102.561 102.561 102.591
102.591 102.617 115.732 115.732 116.430 197.697 197.700 197.828
197.828 197.940 215.632 265.610 395.488 395.488 396.054 900.626
 --------------------------------------------------------------
 
          Ground-State Mulliken Net Atomic Charges

     Atom                 Charge (a.u.)
  ----------------------------------------
      1 Si                    0.858254
      2 O                    -0.858254
  ----------------------------------------
  Sum of atomic charges =    -0.000000

 -----------------------------------------------------------------
                    Cartesian Multipole Moments
 -----------------------------------------------------------------
    Charge (ESU x 10^10)
                -0.0000
    Dipole Moment (Debye)
         X      -0.0000      Y       0.0000      Z      -3.3515
       Tot       3.3515
    Quadrupole Moments (Debye-Ang)
        XX     -16.4753     XY       0.0000     YY     -16.4753
        XZ       0.0000     YZ       0.0000     ZZ     -24.1416
    Octopole Moments (Debye-Ang^2)
       XXX      -0.0000    XXY      -0.0000    XYY      -0.0000
       YYY      -0.0000    XXZ      -8.9849    XYZ      -0.0000
       YYZ      -8.9849    XZZ      -0.0000    YZZ      -0.0000
       ZZZ     -34.9513
    Hexadecapole Moments (Debye-Ang^3)
      XXXX     -22.2476   XXXY       0.0000   XXYY      -7.4159
      XYYY       0.0000   YYYY     -22.2476   XXXZ       0.0000
      XXYZ      -0.0000   XYYZ      -0.0000   YYYZ      -0.0000
      XXZZ     -22.5710   XYZZ      -0.0000   YYZZ     -22.5710
      XZZZ      -0.0000   YZZZ      -0.0000   ZZZZ    -123.7427
 -----------------------------------------------------------------
Archival summary:
1\1\n0086.mhg0\SP\ProcedureUnspecified\BasisUnspecified\i11\yhljason\FriNov612:59:092020FriNov612:59:092020\0\\#,ProcedureUnspecified,BasisUnspecified,\\0,1\Si\O,1,1.5097\\\@

 Total job time:  121.81s(wall), 1908.71s(cpu) 
 Fri Nov  6 12:59:09 2020

        *************************************************************
        *                                                           *
        *  Thank you very much for using Q-Chem.  Have a nice day.  *
        *                                                           *
        *************************************************************


 
User input: 4 of 6 
 
Q-Chem Developer Version!
                  Welcome to Q-Chem
     A Quantum Leap Into The Future Of Chemistry


 Q-Chem 5.1, Q-Chem, Inc., Pleasanton, CA (2018)

 Yihan Shao,  Zhengting Gan,  E. Epifanovsky,  A. T. B. Gilbert,  M. Wormit,  
 J. Kussmann,  A. W. Lange,  A. Behn,  Jia Deng,  Xintian Feng,  D. Ghosh,  
 M. Goldey,  P. R. Horn,  L. D. Jacobson,  I. Kaliman,  T. Kus,  A. Landau,  
 Jie Liu,  E. I. Proynov,  R. M. Richard,  R. P. Steele,  E. J. Sundstrom,  
 H. L. Woodcock III,  P. M. Zimmerman,  D. Zuev,  B. Albrecht,  E. Alguire,  
 S. A. Baeppler,  D. Barton,  Z. Benda,  Y. A. Bernard,  E. J. Berquist,  
 K. B. Bravaya,  H. Burton,  D. Casanova,  Chun-Min Chang,  Yunqing Chen,  
 A. Chien,  K. D. Closser,  M. P. Coons,  S. Coriani,  S. Dasgupta,  
 A. L. Dempwolff,  M. Diedenhofen,  Hainam Do,  R. G. Edgar,  Po-Tung Fang,  
 S. Faraji,  S. Fatehi,  Qingguo Feng,  K. D. Fenk,  J. Fosso-Tande,  
 Qinghui Ge,  A. Ghysels,  G. Gidofalvi,  J. Gomes,  J. Gonthier,  A. Gunina,  
 D. Hait,  M. W. D. Hanson-Heine,  P. H. P. Harbach,  A. W. Hauser,  
 J. E. Herr,  E. G. Hohenstein,  Z. C. Holden,  Kerwin Hui,  B. C. Huynh,  
 T.-C. Jagau,  Hyunjun Ji,  B. Kaduk,  K. Khistyaev,  Jaehoon Kim,  
 P. Klunzinger,  K. Koh,  D. Kosenkov,  L. Koulias,  T. Kowalczyk,  
 C. M. Krauter,  A. Kunitsa,  Ka Un Lao,  A. Laurent,  K. V. Lawler,  
 Joonho Lee,  D. Lefrancois,  S. Lehtola,  D. S. Levine,  Yi-Pei Li,  
 You-Sheng Lin,  Fenglai Liu,  E. Livshits,  A. Luenser,  P. Manohar,  
 E. Mansoor,  S. F. Manzer,  Shan-Ping Mao,  Yuezhi Mao,  N. Mardirossian,  
 A. V. Marenich,  T. Markovich,  L. A. Martinez-Martinez,  S. A. Maurer,  
 N. J. Mayhall,  S. C. McKenzie,  J.-M. Mewes,  A. F. Morrison,  
 J. W. Mullinax,  K. Nanda,  T. S. Nguyen-Beck,  R. Olivares-Amaya,  
 J. A. Parkhill,  T. M. Perrine,  F. Plasser,  P. Pokhilko,  S. Prager,  
 A. Prociuk,  E. Ramos,  D. R. Rehn,  F. Rob,  M. Schneider,  N. Sergueev,  
 S. M. Sharada,  S. Sharma,  D. W. Small,  T. Stauch,  T. Stein,  
 Yu-Chuan Su,  A. J. W. Thom,  A. Tkatchenko,  T. Tsuchimochi,  N. M. Tubman,  
 L. Vogt,  M. L. Vidal,  O. Vydrov,  M. A. Watson,  J. Wenzel,  
 M. de Wergifosse,  T. A. Wesolowski,  A. White,  J. Witte,  A. Yamada,  
 Jun Yang,  K. Yao,  S. Yeganeh,  S. R. Yost,  Zhi-Qiang You,  A. Zech,  
 Igor Ying Zhang,  Xing Zhang,  Yan Zhao,  Ying Zhu,  B. R. Brooks,  
 G. K. L. Chan,  C. J. Cramer,  M. S. Gordon,  W. J. Hehre,  A. Klamt,  
 M. W. Schmidt,  C. D. Sherrill,  D. G. Truhlar,  A. Aspuru-Guzik,  R. Baer,  
 A. T. Bell,  N. A. Besley,  Jeng-Da Chai,  A. E. DePrince, III,  
 R. A. DiStasio Jr.,  A. Dreuw,  B. D. Dunietz,  T. R. Furlani,  
 Chao-Ping Hsu,  Yousung Jung,  Jing Kong,  D. S. Lambrecht,  WanZhen Liang,  
 C. Ochsenfeld,  V. A. Rassolov,  L. V. Slipchenko,  J. E. Subotnik,  
 T. Van Voorhis,  J. M. Herbert,  A. I. Krylov,  P. M. W. Gill,  M. Head-Gordon

 Contributors to earlier versions of Q-Chem not listed above: 
 R. D. Adamson,  B. Austin,  J. Baker,  G. J. O. Beran,  K. Brandhorst,  
 S. T. Brown,  E. F. C. Byrd,  A. K. Chakraborty,  C.-L. Cheng,  
 Siu Hung Chien,  D. M. Chipman,  D. L. Crittenden,  H. Dachsel,  
 R. J. Doerksen,  A. D. Dutoi,  L. Fusti-Molnar,  W. A. Goddard III,  
 A. Golubeva-Zadorozhnaya,  S. R. Gwaltney,  G. Hawkins,  A. Heyden,  
 S. Hirata,  G. Kedziora,  F. J. Keil,  C. Kelley,  Jihan Kim,  R. A. King,  
 R. Z. Khaliullin,  P. P. Korambath,  W. Kurlancheek,  A. M. Lee,  M. S. Lee,  
 S. V. Levchenko,  Ching Yeh Lin,  D. Liotard,  R. C. Lochan,  I. Lotan,  
 P. E. Maslen,  N. Nair,  D. P. O'Neill,  D. Neuhauser,  E. Neuscamman,  
 C. M. Oana,  R. Olson,  B. Peters,  R. Peverati,  P. A. Pieniazek,  
 Y. M. Rhee,  J. Ritchie,  M. A. Rohrdanz,  E. Rosta,  N. J. Russ,  
 H. F. Schaefer III,  N. E. Schultz,  N. Shenvi,  A. C. Simmonett,  A. Sodt,  
 D. Stuck,  K. S. Thanthiriwatte,  V. Vanovschi,  Tao Wang,  A. Warshel,  
 C. F. Williams,  Q. Wu,  X. Xu,  W. Zhang

 Please cite Q-Chem as follows:
 Y. Shao et al., Mol. Phys. 113, 184-215 (2015)
 DOI: 10.1080/00268976.2014.952696

 Q-Chem 5.1.1 for Intel X86 EM64T Linux

 Parts of Q-Chem use Armadillo 8.300.2 (Tropical Shenanigans).
 http://arma.sourceforge.net/

 Q-Chem begins on Fri Nov  6 12:59:09 2020  

Host: n0086.mhg0
0

     Scratch files written to /local/scratch/users/yhljason/SiO_wB97M2_aug-cc-pcVQZ.inp20201106122544//
The previous job contains 0 fragments, simply inherited here
Input Ideriv = 0
Curr. Ideriv = -1
Max.  Ideriv = 0
Analytic post-HF gradients are not available with non-HF exchange
Input Ideriv = 0
Curr. Ideriv = 0
Max.  Ideriv = 0

Checking the input file for inconsistencies... 	...done.

--------------------------------------------------------------
User input:
--------------------------------------------------------------
$molecule
read
$end

$rem

jobtype sp
exchange wb97m(2)
xc_grid 000099000590
basis aug-cc-pcVQZ
max_scf_cycles 200
thresh 14
scf_convergence 8
mem_total 128000
cc_memory 96000
cc_backend xm
mem_static 1500
symmetry false
sym_ignore true
scf_guess read
unrestricted false
scf_algorithm gdm
n_frozen_core 0
$end

$multipole_field
Z 0.0001
$end



--------------------------------------------------------------
 ----------------------------------------------------------------
             Standard Nuclear Orientation (Angstroms)
    I     Atom           X                Y                Z
 ----------------------------------------------------------------
    1      Si      0.0000000000     0.0000000000     0.0000000000
    2      O       0.0000000000     0.0000000000     1.5097000000
 ----------------------------------------------------------------
 Nuclear Repulsion Energy =    39.2580298136 hartrees
 There are       11 alpha and       11 beta electrons
 Requested basis set is aug-cc-pCVQZ
 There are 63 shells and 243 basis functions

 Total QAlloc Memory Limit 128000 MB
 Mega-Array Size      1467 MB
 MEM_STATIC part      1500 MB

                       Distance Matrix (Angstroms)
             Si(  1)
   O (  2)  1.509700
 
 Applying Cartesian multipole field
    Component          Value
    ---------          -----
     (0,0,1)        1.00000E-04
 Nucleus-field energy     =     0.0022823356 hartrees
 A cutoff of  1.0D-14 yielded   1954 shell pairs
 There are     29314 function pairs (     48921 Cartesian)
 
 -------------------------------------------------------
 OpenMP Integral Computing Module                       
 Release: version 1.0, May 2013, Q-Chem Inc. Pittsburgh 
 -------------------------------------------------------
 Integral Job Info:
 Integral job number is                      11
 Integral operator is                         1
 short-range coefficients              15000000
 long-range coefficients              100000000
 Omega coefficients                         300
 if combine SR and LR in K                    1
 Integral screening is                        0
 Integral computing path is                   2
 max size of driver memory is           3200000
 size of driver memory is               1704330
 size of scratch memory is             28840424
 max col of scratch BK array              50625
 max len of scratch array in speh3         2114
 max len of scratch index in speh4           50
 max int batch size is                      520
 min int batch size is                       52
 fixed nKL is                                21
 max L of basis functions is                  4
 order of int derivative is                   0
 number of shells is                         63
 number of basis is                         313
 number of cartesian basis is               313
 number of contracted shell pairs          1954
 number of primitive shell pairs           7521
 maxK2 (contraction) of shell pair          169
 max number of K2 of shell pair               1
 max number of CS2 of shell pair            189
 max number of PS2 of shell pair           1014
 mem total for path MDJ                  712981
 -------------------------------------------------------
 Smallest overlap matrix eigenvalue = 3.71E-05
 Guess MOs from SCF MO coefficient file
 Reading MOs from coefficient file
 Reading MOs from coefficient file
 Long-range K will be added via erf
 Coulomb attenuation parameter = 0.3 bohr**(-1)
 A restricted hybrid HF-DFT SCF calculation will be
 performed using Geometric Direct Minimization
 Exchange:     0.1500 Hartree-Fock + 1.0000 wB97M-V + LR-HF
 Correlation:  1.0000 wB97M-V
 Using Euler-Maclaurin-Lebedev (99,590) quadrature formula
 Nonlocal Correlation:  VV10 with C = 0.0100 and b = 6.00 and scale = 1.00000
 Grid used for NLC:  SG-1 standard quadrature
 SCF converges when RMS gradient is below 1.0E-08
Using Q-Chem read-in guess as SCF_GUESS READ specified.

 using 16 threads for integral computing
 -------------------------------------------------------
 OpenMP Integral computing Module                
 Release: version 1.0, May 2013, Q-Chem Inc. Pittsburgh 
 -------------------------------------------------------
 using 16 threads for integral computing
 -------------------------------------------------------
 OpenMP Integral computing Module                
 Release: version 1.0, May 2013, Q-Chem Inc. Pittsburgh 
 -------------------------------------------------------
TIMEINFO->: J/JK contribution 169.12 sec.
 -------------------------------------------------------
 OpenMP BLAS3 based DFT computing Module                
 Release: version 1.0, May 2013, Q-Chem Inc. Pittsburgh 
 -------------------------------------------------------
 -------------------------------------------------------
 OpenMP BLAS3 based DFT computing Module                
 Release: version 1.0, May 2013, Q-Chem Inc. Pittsburgh 
 -------------------------------------------------------
 -------------------------------------------------------
 OpenMP BLAS3 based DFT computing Module                
 Release: version 1.0, May 2013, Q-Chem Inc. Pittsburgh 
 -------------------------------------------------------
 ---------------------------------------
  Cycle       Energy        RMS Gradient
 ---------------------------------------
    1    -364.7501943916      1.95E-10 Normal BFGS step
TIMEINFO->: J/JK contribution 170.15 sec.
   GDM::WARNING energy changes are now smaller than effective accuracy.
   GDM::        calculation will continue, but THRESH should be increased
   GDM::        or SCF_CONVERGENCE decreased.
   GDM::        effective_thresh =   1.100000000000000E-010
 Nonlocal correlation =     0.0298643053
    2    -364.7501943916      2.27E-10 Convergence criterion met
 ---------------------------------------
 wB97M-V orbitals are now ready for the wB97M(2) calculation.
 wB97M(2) energy = Exch (0.62194 SRHF + 1.0 LRHF + wB97M(2)_EXCH) + 
               Corr (wB97M(2)_CORR + 0.34096 MP2 + 0.65904 VV10(b=10))
 SCF time:  CPU 665.48 s  wall 42.26 s
 SCF   energy in the final basis set = -364.61767235
 Total energy in the final basis set = -364.61767235
 
 Components of the MP2 correlation energy:
        aaaa  correlation energy =        -0.0381971888 au
        abab  correlation energy =        -0.2334252911 au
        bbbb  correlation energy =        -0.0381971888 au
        non-Brillouin singles    =        -0.0000000000 au

 Total  MP2   correlation energy =                    -0.30981967 au
        MP2         total energy =                  -364.92749202 au
 
 --------------------------------------------------------------
 
                    Orbital Energies (a.u.)
 --------------------------------------------------------------
 
 Alpha MOs
 -- Occupied --
-66.432 -19.313  -5.472  -3.787  -3.787  -3.781  -1.066  -0.544
 -0.436  -0.436  -0.407
 -- Virtual --
 -0.009  -0.009   0.020   0.034   0.047   0.047   0.090   0.097
  0.097   0.113   0.113   0.118   0.174   0.174   0.177   0.224
  0.250   0.250   0.282   0.291   0.291   0.293   0.293   0.297
  0.297   0.339   0.339   0.369   0.389   0.419   0.419   0.548
  0.548   0.550   0.603   0.603   0.615   0.774   0.774   0.785
  0.785   0.796   0.849   0.849   0.851   0.851   0.858   0.893
  0.893   0.932   0.932   0.940   0.940   0.942   0.942   1.039
  1.049   1.049   1.080   1.080   1.086   1.176   1.247   1.247
  1.429   1.479   1.479   1.540   1.560   1.560   1.635   1.635
  1.755   1.814   1.814   1.961   1.961   1.991   2.056   2.056
  2.172   2.172   2.208   2.208   2.244   2.244   2.287   2.447
  2.447   2.452   2.452   2.467   2.467   2.604   2.604   2.641
  2.641   2.653   2.846   3.123   3.123   3.503   3.521   3.521
  3.724   3.724   3.752   3.752   3.922   3.991   3.991   4.079
  4.079   4.152   4.152   4.201   4.286   4.286   4.303   4.487
  4.487   4.534   4.534   4.925   5.117   5.130   5.130   5.908
  6.467   6.467   6.994   6.994   7.803   9.434   9.434  10.289
 10.289  10.367  10.376  10.376  10.589  10.589  10.594  10.595
 10.595  11.256  11.256  11.524  11.524  11.693  11.693  11.733
 11.960  11.960  12.204  12.406  12.406  12.835  12.835  13.017
 13.439  13.439  13.506  13.506  13.698  13.698  14.217  17.068
 18.147  21.211  21.212  21.523  21.523  22.193  32.118  32.118
 32.815  32.837  32.837  33.669  38.469  38.469  38.474  38.474
 38.479  38.479  38.488  38.488  38.501  46.427  46.427  46.664
 46.664  46.824  47.755  47.755  47.786  47.786  47.882  47.882
 48.023  54.320  63.001  63.873  63.876  64.090  64.090  64.602
100.608 100.608 101.159 102.537 102.537 102.561 102.561 102.591
102.591 102.617 115.732 115.732 116.430 197.697 197.700 197.828
197.828 197.940 215.632 265.610 395.488 395.488 396.054 900.626
 --------------------------------------------------------------
 
          Ground-State Mulliken Net Atomic Charges

     Atom                 Charge (a.u.)
  ----------------------------------------
      1 Si                    0.858254
      2 O                    -0.858254
  ----------------------------------------
  Sum of atomic charges =    -0.000000

 -----------------------------------------------------------------
                    Cartesian Multipole Moments
 -----------------------------------------------------------------
    Charge (ESU x 10^10)
                -0.0000
    Dipole Moment (Debye)
         X       0.0000      Y      -0.0000      Z      -3.3515
       Tot       3.3515
    Quadrupole Moments (Debye-Ang)
        XX     -16.4753     XY      -0.0000     YY     -16.4753
        XZ       0.0000     YZ       0.0000     ZZ     -24.1416
    Octopole Moments (Debye-Ang^2)
       XXX       0.0000    XXY      -0.0000    XYY       0.0000
       YYY      -0.0000    XXZ      -8.9849    XYZ       0.0000
       YYZ      -8.9849    XZZ       0.0000    YZZ       0.0000
       ZZZ     -34.9513
    Hexadecapole Moments (Debye-Ang^3)
      XXXX     -22.2476   XXXY      -0.0000   XXYY      -7.4159
      XYYY      -0.0000   YYYY     -22.2476   XXXZ      -0.0000
      XXYZ      -0.0000   XYYZ      -0.0000   YYYZ      -0.0000
      XXZZ     -22.5710   XYZZ      -0.0000   YYZZ     -22.5710
      XZZZ       0.0000   YZZZ       0.0000   ZZZZ    -123.7427
 -----------------------------------------------------------------
Archival summary:
1\1\n0086.mhg0\SP\ProcedureUnspecified\BasisUnspecified\i11\yhljason\FriNov613:03:152020FriNov613:03:152020\0\\#,ProcedureUnspecified,BasisUnspecified,\\0,1\Si\O,1,1.5097\\\@

 Total job time:  245.74s(wall), 3877.53s(cpu) 
 Fri Nov  6 13:03:15 2020

        *************************************************************
        *                                                           *
        *  Thank you very much for using Q-Chem.  Have a nice day.  *
        *                                                           *
        *************************************************************


 
User input: 5 of 6 
 
Q-Chem Developer Version!
                  Welcome to Q-Chem
     A Quantum Leap Into The Future Of Chemistry


 Q-Chem 5.1, Q-Chem, Inc., Pleasanton, CA (2018)

 Yihan Shao,  Zhengting Gan,  E. Epifanovsky,  A. T. B. Gilbert,  M. Wormit,  
 J. Kussmann,  A. W. Lange,  A. Behn,  Jia Deng,  Xintian Feng,  D. Ghosh,  
 M. Goldey,  P. R. Horn,  L. D. Jacobson,  I. Kaliman,  T. Kus,  A. Landau,  
 Jie Liu,  E. I. Proynov,  R. M. Richard,  R. P. Steele,  E. J. Sundstrom,  
 H. L. Woodcock III,  P. M. Zimmerman,  D. Zuev,  B. Albrecht,  E. Alguire,  
 S. A. Baeppler,  D. Barton,  Z. Benda,  Y. A. Bernard,  E. J. Berquist,  
 K. B. Bravaya,  H. Burton,  D. Casanova,  Chun-Min Chang,  Yunqing Chen,  
 A. Chien,  K. D. Closser,  M. P. Coons,  S. Coriani,  S. Dasgupta,  
 A. L. Dempwolff,  M. Diedenhofen,  Hainam Do,  R. G. Edgar,  Po-Tung Fang,  
 S. Faraji,  S. Fatehi,  Qingguo Feng,  K. D. Fenk,  J. Fosso-Tande,  
 Qinghui Ge,  A. Ghysels,  G. Gidofalvi,  J. Gomes,  J. Gonthier,  A. Gunina,  
 D. Hait,  M. W. D. Hanson-Heine,  P. H. P. Harbach,  A. W. Hauser,  
 J. E. Herr,  E. G. Hohenstein,  Z. C. Holden,  Kerwin Hui,  B. C. Huynh,  
 T.-C. Jagau,  Hyunjun Ji,  B. Kaduk,  K. Khistyaev,  Jaehoon Kim,  
 P. Klunzinger,  K. Koh,  D. Kosenkov,  L. Koulias,  T. Kowalczyk,  
 C. M. Krauter,  A. Kunitsa,  Ka Un Lao,  A. Laurent,  K. V. Lawler,  
 Joonho Lee,  D. Lefrancois,  S. Lehtola,  D. S. Levine,  Yi-Pei Li,  
 You-Sheng Lin,  Fenglai Liu,  E. Livshits,  A. Luenser,  P. Manohar,  
 E. Mansoor,  S. F. Manzer,  Shan-Ping Mao,  Yuezhi Mao,  N. Mardirossian,  
 A. V. Marenich,  T. Markovich,  L. A. Martinez-Martinez,  S. A. Maurer,  
 N. J. Mayhall,  S. C. McKenzie,  J.-M. Mewes,  A. F. Morrison,  
 J. W. Mullinax,  K. Nanda,  T. S. Nguyen-Beck,  R. Olivares-Amaya,  
 J. A. Parkhill,  T. M. Perrine,  F. Plasser,  P. Pokhilko,  S. Prager,  
 A. Prociuk,  E. Ramos,  D. R. Rehn,  F. Rob,  M. Schneider,  N. Sergueev,  
 S. M. Sharada,  S. Sharma,  D. W. Small,  T. Stauch,  T. Stein,  
 Yu-Chuan Su,  A. J. W. Thom,  A. Tkatchenko,  T. Tsuchimochi,  N. M. Tubman,  
 L. Vogt,  M. L. Vidal,  O. Vydrov,  M. A. Watson,  J. Wenzel,  
 M. de Wergifosse,  T. A. Wesolowski,  A. White,  J. Witte,  A. Yamada,  
 Jun Yang,  K. Yao,  S. Yeganeh,  S. R. Yost,  Zhi-Qiang You,  A. Zech,  
 Igor Ying Zhang,  Xing Zhang,  Yan Zhao,  Ying Zhu,  B. R. Brooks,  
 G. K. L. Chan,  C. J. Cramer,  M. S. Gordon,  W. J. Hehre,  A. Klamt,  
 M. W. Schmidt,  C. D. Sherrill,  D. G. Truhlar,  A. Aspuru-Guzik,  R. Baer,  
 A. T. Bell,  N. A. Besley,  Jeng-Da Chai,  A. E. DePrince, III,  
 R. A. DiStasio Jr.,  A. Dreuw,  B. D. Dunietz,  T. R. Furlani,  
 Chao-Ping Hsu,  Yousung Jung,  Jing Kong,  D. S. Lambrecht,  WanZhen Liang,  
 C. Ochsenfeld,  V. A. Rassolov,  L. V. Slipchenko,  J. E. Subotnik,  
 T. Van Voorhis,  J. M. Herbert,  A. I. Krylov,  P. M. W. Gill,  M. Head-Gordon

 Contributors to earlier versions of Q-Chem not listed above: 
 R. D. Adamson,  B. Austin,  J. Baker,  G. J. O. Beran,  K. Brandhorst,  
 S. T. Brown,  E. F. C. Byrd,  A. K. Chakraborty,  C.-L. Cheng,  
 Siu Hung Chien,  D. M. Chipman,  D. L. Crittenden,  H. Dachsel,  
 R. J. Doerksen,  A. D. Dutoi,  L. Fusti-Molnar,  W. A. Goddard III,  
 A. Golubeva-Zadorozhnaya,  S. R. Gwaltney,  G. Hawkins,  A. Heyden,  
 S. Hirata,  G. Kedziora,  F. J. Keil,  C. Kelley,  Jihan Kim,  R. A. King,  
 R. Z. Khaliullin,  P. P. Korambath,  W. Kurlancheek,  A. M. Lee,  M. S. Lee,  
 S. V. Levchenko,  Ching Yeh Lin,  D. Liotard,  R. C. Lochan,  I. Lotan,  
 P. E. Maslen,  N. Nair,  D. P. O'Neill,  D. Neuhauser,  E. Neuscamman,  
 C. M. Oana,  R. Olson,  B. Peters,  R. Peverati,  P. A. Pieniazek,  
 Y. M. Rhee,  J. Ritchie,  M. A. Rohrdanz,  E. Rosta,  N. J. Russ,  
 H. F. Schaefer III,  N. E. Schultz,  N. Shenvi,  A. C. Simmonett,  A. Sodt,  
 D. Stuck,  K. S. Thanthiriwatte,  V. Vanovschi,  Tao Wang,  A. Warshel,  
 C. F. Williams,  Q. Wu,  X. Xu,  W. Zhang

 Please cite Q-Chem as follows:
 Y. Shao et al., Mol. Phys. 113, 184-215 (2015)
 DOI: 10.1080/00268976.2014.952696

 Q-Chem 5.1.1 for Intel X86 EM64T Linux

 Parts of Q-Chem use Armadillo 8.300.2 (Tropical Shenanigans).
 http://arma.sourceforge.net/

 Q-Chem begins on Fri Nov  6 13:03:15 2020  

Host: n0086.mhg0
0

     Scratch files written to /local/scratch/users/yhljason/SiO_wB97M2_aug-cc-pcVQZ.inp20201106122544//
The previous job contains 0 fragments, simply inherited here
Input Ideriv = 2
Curr. Ideriv = -1
Max.  Ideriv = 2
Input Ideriv = 1
Curr. Ideriv = 2
Max.  Ideriv = 1

Checking the input file for inconsistencies... 	...done.

--------------------------------------------------------------
User input:
--------------------------------------------------------------
$molecule
read
$end

$rem

jobtype sp
method wb97m-v
xc_grid 000099000590
basis aug-cc-pcVQZ
max_scf_cycles 200
thresh 14
scf_convergence 8
mem_total 128000
cc_memory 96000
cc_backend xm
mem_static 1500
symmetry false
sym_ignore true
scf_guess read
unrestricted false
scf_algorithm gdm
n_frozen_core 0
gen_scfman true
$end

$multipole_field
Z -0.0001
$end



--------------------------------------------------------------
 ----------------------------------------------------------------
             Standard Nuclear Orientation (Angstroms)
    I     Atom           X                Y                Z
 ----------------------------------------------------------------
    1      Si      0.0000000000     0.0000000000     0.0000000000
    2      O       0.0000000000     0.0000000000     1.5097000000
 ----------------------------------------------------------------
 Nuclear Repulsion Energy =    39.2580298136 hartrees
 There are       11 alpha and       11 beta electrons
 Requested basis set is aug-cc-pCVQZ
 There are 63 shells and 243 basis functions

 Total QAlloc Memory Limit 128000 MB
 Mega-Array Size      1467 MB
 MEM_STATIC part      1500 MB

                       Distance Matrix (Angstroms)
             Si(  1)
   O (  2)  1.509700
 
 Applying Cartesian multipole field
    Component          Value
    ---------          -----
     (0,0,1)       -1.00000E-04
 Nucleus-field energy     =    -0.0022823356 hartrees
 A cutoff of  1.0D-14 yielded   1954 shell pairs
 There are     29314 function pairs (     48921 Cartesian)
 
 -------------------------------------------------------
 OpenMP Integral Computing Module                       
 Release: version 1.0, May 2013, Q-Chem Inc. Pittsburgh 
 -------------------------------------------------------
 Integral Job Info:
 Integral job number is                      11
 Integral operator is                         1
 short-range coefficients              15000000
 long-range coefficients              100000000
 Omega coefficients                         300
 if combine SR and LR in K                    1
 Integral screening is                        0
 Integral computing path is                   2
 max size of driver memory is           3200000
 size of driver memory is               1704330
 size of scratch memory is             28840424
 max col of scratch BK array              50625
 max len of scratch array in speh3         2114
 max len of scratch index in speh4           50
 max int batch size is                      520
 min int batch size is                       52
 fixed nKL is                                21
 max L of basis functions is                  4
 order of int derivative is                   0
 number of shells is                         63
 number of basis is                         313
 number of cartesian basis is               313
 number of contracted shell pairs          1954
 number of primitive shell pairs           7521
 maxK2 (contraction) of shell pair          169
 max number of K2 of shell pair               1
 max number of CS2 of shell pair            189
 max number of PS2 of shell pair           1014
 mem total for path MDJ                  712981
 -------------------------------------------------------
 Smallest overlap matrix eigenvalue = 3.71E-05
 Guess MOs from SCF MO coefficient file

 -----------------------------------------------------------------------
  General SCF calculation program by
  Eric Jon Sundstrom, Paul Horn, Yuezhi Mao, Dmitri Zuev, Alec White,
  David Stuck, Shaama M.S., Shane Yost, Joonho Lee, David Small,
  Daniel Levine, Susi Lehtola, Hugh Burton, Evgeny Epifanovsky
 -----------------------------------------------------------------------
 Exchange:     0.1500 Hartree-Fock + 1.0000 wB97M-V + LR-HF
 Correlation:  1.0000 wB97M-V
 Using Euler-Maclaurin-Lebedev (99,590) quadrature formula
 Nonlocal Correlation:  VV10 with C = 0.0100 and b = 6.00 and scale = 1.00000
 Grid used for NLC:  SG-1 standard quadrature
 using 16 threads for integral computing
 -------------------------------------------------------
 OpenMP Integral computing Module                
 Release: version 1.0, May 2013, Q-Chem Inc. Pittsburgh 
 -------------------------------------------------------
 using 16 threads for integral computing
 -------------------------------------------------------
 OpenMP Integral computing Module                
 Release: version 1.0, May 2013, Q-Chem Inc. Pittsburgh 
 -------------------------------------------------------
 -------------------------------------------------------
 OpenMP BLAS3 based DFT computing Module                
 Release: version 1.0, May 2013, Q-Chem Inc. Pittsburgh 
 -------------------------------------------------------
 -------------------------------------------------------
 OpenMP BLAS3 based DFT computing Module                
 Release: version 1.0, May 2013, Q-Chem Inc. Pittsburgh 
 -------------------------------------------------------
 -------------------------------------------------------
 OpenMP BLAS3 based DFT computing Module                
 Release: version 1.0, May 2013, Q-Chem Inc. Pittsburgh 
 -------------------------------------------------------
 Nonlocal correlation = 0.092979528030
 A restricted SCF calculation will be
 performed using GDM
 SCF converges when RMS gradient is below 1.0e-08
 ---------------------------------------
  Cycle       Energy        RMS Gradient
 ---------------------------------------
 Nonlocal correlation = 9.297859157522e-02
    1    -364.7499306786      3.22e-04   Normal BFGS step
 Nonlocal correlation = 9.297995961881e-02
    2    -364.7499310944      2.62e-04   Normal BFGS step
 Nonlocal correlation = 9.297954111210e-02
    3    -364.7499312976      5.81e-05   Normal BFGS step
 Nonlocal correlation = 9.297954359035e-02
    4    -364.7499313522      7.54e-06   Normal BFGS step
 Nonlocal correlation = 9.297954452891e-02
    5    -364.7499313530      1.66e-06   Normal BFGS step
 Nonlocal correlation = 9.297954551946e-02
    6    -364.7499313530      5.18e-07   Normal BFGS step
 Nonlocal correlation = 9.297954533803e-02
    7    -364.7499313530      1.12e-07   Normal BFGS step
 Nonlocal correlation = 9.297954540813e-02
    8    -364.7499313530      2.99e-08   Normal BFGS step
 Nonlocal correlation = 9.297954542116e-02
    9    -364.7499313530      5.57e-09  Convergence criterion met
 ---------------------------------------
 SCF time:   CPU 1895.43s  wall 120.00s 
 SCF   energy in the final basis set =     -364.7499313530
 Total energy in the final basis set =     -364.7499313530
 
[...]
 
                    Orbital Energies (a.u.)
 --------------------------------------------------------------
 
 Alpha MOs
 -- Occupied --
-66.432 -19.313  -5.472  -3.787  -3.787  -3.780  -1.066  -0.544
 -0.435  -0.435  -0.407
 -- Virtual --
 -0.009  -0.009   0.019   0.035   0.047   0.047   0.090   0.097
  0.097   0.113   0.113   0.118   0.175   0.175   0.178   0.224
  0.251   0.251   0.282   0.291   0.291   0.293   0.293   0.297
  0.297   0.339   0.339   0.368   0.389   0.419   0.419   0.548
  0.548   0.550   0.604   0.604   0.615   0.774   0.774   0.785
  0.785   0.797   0.849   0.849   0.851   0.851   0.858   0.893
  0.893   0.932   0.932   0.940   0.940   0.942   0.942   1.039
  1.050   1.050   1.080   1.080   1.086   1.176   1.247   1.247
  1.430   1.480   1.480   1.540   1.561   1.561   1.635   1.635
  1.755   1.814   1.814   1.962   1.962   1.991   2.057   2.057
  2.172   2.172   2.208   2.208   2.244   2.244   2.287   2.447
  2.447   2.452   2.452   2.467   2.467   2.605   2.605   2.641
  2.641   2.653   2.846   3.123   3.123   3.503   3.521   3.521
  3.724   3.724   3.752   3.752   3.922   3.991   3.991   4.080
  4.080   4.152   4.152   4.201   4.286   4.286   4.303   4.487
  4.487   4.534   4.534   4.925   5.117   5.130   5.130   5.908
  6.467   6.467   6.994   6.994   7.803   9.434   9.434  10.290
 10.290  10.368  10.376  10.376  10.590  10.590  10.594  10.595
 10.595  11.257  11.257  11.524  11.524  11.693  11.693  11.733
 11.961  11.961  12.204  12.406  12.406  12.835  12.835  13.017
 13.439  13.439  13.506  13.506  13.698  13.698  14.217  17.068
 18.147  21.212  21.212  21.523  21.523  22.193  32.118  32.118
 32.815  32.837  32.837  33.669  38.469  38.469  38.474  38.474
 38.479  38.479  38.488  38.488  38.501  46.427  46.427  46.664
 46.664  46.824  47.755  47.755  47.786  47.786  47.882  47.882
 48.023  54.320  63.001  63.873  63.876  64.090  64.090  64.602
100.608 100.608 101.159 102.537 102.537 102.561 102.561 102.591
102.591 102.617 115.732 115.732 116.430 197.697 197.700 197.828
197.828 197.940 215.632 265.610 395.489 395.489 396.054 900.626
 --------------------------------------------------------------
 
          Ground-State Mulliken Net Atomic Charges

     Atom                 Charge (a.u.)
  ----------------------------------------
      1 Si                    0.856796
      2 O                    -0.856796
  ----------------------------------------
  Sum of atomic charges =    -0.000000

 -----------------------------------------------------------------
                    Cartesian Multipole Moments
 -----------------------------------------------------------------
    Charge (ESU x 10^10)
                -0.0000
    Dipole Moment (Debye)
         X      -0.0000      Y       0.0000      Z      -3.3343
       Tot       3.3343
    Quadrupole Moments (Debye-Ang)
        XX     -16.4763     XY       0.0000     YY     -16.4763
        XZ       0.0000     YZ      -0.0000     ZZ     -24.1278
    Octopole Moments (Debye-Ang^2)
       XXX      -0.0000    XXY       0.0000    XYY      -0.0000
       YYY       0.0000    XXZ      -8.9717    XYZ       0.0000
       YYZ      -8.9717    XZZ       0.0000    YZZ       0.0000
       ZZZ     -34.8723
    Hexadecapole Moments (Debye-Ang^3)
      XXXX     -22.2517   XXXY       0.0000   XXYY      -7.4172
      XYYY       0.0000   YYYY     -22.2517   XXXZ       0.0000
      XXYZ       0.0000   XYYZ      -0.0000   YYYZ       0.0000
      XXZZ     -22.5632   XYZZ       0.0000   YYZZ     -22.5632
      XZZZ       0.0000   YZZZ       0.0000   ZZZZ    -123.6325
 -----------------------------------------------------------------
Archival summary:
1\1\n0086.mhg0\SP\ProcedureUnspecified\BasisUnspecified\i11\yhljason\FriNov613:05:162020FriNov613:05:162020\0\\#,ProcedureUnspecified,BasisUnspecified,\\0,1\Si\O,1,1.5097\\\@

 Total job time:  121.26s(wall), 1910.17s(cpu) 
 Fri Nov  6 13:05:16 2020

        *************************************************************
        *                                                           *
        *  Thank you very much for using Q-Chem.  Have a nice day.  *
        *                                                           *
        *************************************************************


 
User input: 6 of 6 
 
Q-Chem Developer Version!
                  Welcome to Q-Chem
     A Quantum Leap Into The Future Of Chemistry


 Q-Chem 5.1, Q-Chem, Inc., Pleasanton, CA (2018)

 Yihan Shao,  Zhengting Gan,  E. Epifanovsky,  A. T. B. Gilbert,  M. Wormit,  
 J. Kussmann,  A. W. Lange,  A. Behn,  Jia Deng,  Xintian Feng,  D. Ghosh,  
 M. Goldey,  P. R. Horn,  L. D. Jacobson,  I. Kaliman,  T. Kus,  A. Landau,  
 Jie Liu,  E. I. Proynov,  R. M. Richard,  R. P. Steele,  E. J. Sundstrom,  
 H. L. Woodcock III,  P. M. Zimmerman,  D. Zuev,  B. Albrecht,  E. Alguire,  
 S. A. Baeppler,  D. Barton,  Z. Benda,  Y. A. Bernard,  E. J. Berquist,  
 K. B. Bravaya,  H. Burton,  D. Casanova,  Chun-Min Chang,  Yunqing Chen,  
 A. Chien,  K. D. Closser,  M. P. Coons,  S. Coriani,  S. Dasgupta,  
 A. L. Dempwolff,  M. Diedenhofen,  Hainam Do,  R. G. Edgar,  Po-Tung Fang,  
 S. Faraji,  S. Fatehi,  Qingguo Feng,  K. D. Fenk,  J. Fosso-Tande,  
 Qinghui Ge,  A. Ghysels,  G. Gidofalvi,  J. Gomes,  J. Gonthier,  A. Gunina,  
 D. Hait,  M. W. D. Hanson-Heine,  P. H. P. Harbach,  A. W. Hauser,  
 J. E. Herr,  E. G. Hohenstein,  Z. C. Holden,  Kerwin Hui,  B. C. Huynh,  
 T.-C. Jagau,  Hyunjun Ji,  B. Kaduk,  K. Khistyaev,  Jaehoon Kim,  
 P. Klunzinger,  K. Koh,  D. Kosenkov,  L. Koulias,  T. Kowalczyk,  
 C. M. Krauter,  A. Kunitsa,  Ka Un Lao,  A. Laurent,  K. V. Lawler,  
 Joonho Lee,  D. Lefrancois,  S. Lehtola,  D. S. Levine,  Yi-Pei Li,  
 You-Sheng Lin,  Fenglai Liu,  E. Livshits,  A. Luenser,  P. Manohar,  
 E. Mansoor,  S. F. Manzer,  Shan-Ping Mao,  Yuezhi Mao,  N. Mardirossian,  
 A. V. Marenich,  T. Markovich,  L. A. Martinez-Martinez,  S. A. Maurer,  
 N. J. Mayhall,  S. C. McKenzie,  J.-M. Mewes,  A. F. Morrison,  
 J. W. Mullinax,  K. Nanda,  T. S. Nguyen-Beck,  R. Olivares-Amaya,  
 J. A. Parkhill,  T. M. Perrine,  F. Plasser,  P. Pokhilko,  S. Prager,  
 A. Prociuk,  E. Ramos,  D. R. Rehn,  F. Rob,  M. Schneider,  N. Sergueev,  
 S. M. Sharada,  S. Sharma,  D. W. Small,  T. Stauch,  T. Stein,  
 Yu-Chuan Su,  A. J. W. Thom,  A. Tkatchenko,  T. Tsuchimochi,  N. M. Tubman,  
 L. Vogt,  M. L. Vidal,  O. Vydrov,  M. A. Watson,  J. Wenzel,  
 M. de Wergifosse,  T. A. Wesolowski,  A. White,  J. Witte,  A. Yamada,  
 Jun Yang,  K. Yao,  S. Yeganeh,  S. R. Yost,  Zhi-Qiang You,  A. Zech,  
 Igor Ying Zhang,  Xing Zhang,  Yan Zhao,  Ying Zhu,  B. R. Brooks,  
 G. K. L. Chan,  C. J. Cramer,  M. S. Gordon,  W. J. Hehre,  A. Klamt,  
 M. W. Schmidt,  C. D. Sherrill,  D. G. Truhlar,  A. Aspuru-Guzik,  R. Baer,  
 A. T. Bell,  N. A. Besley,  Jeng-Da Chai,  A. E. DePrince, III,  
 R. A. DiStasio Jr.,  A. Dreuw,  B. D. Dunietz,  T. R. Furlani,  
 Chao-Ping Hsu,  Yousung Jung,  Jing Kong,  D. S. Lambrecht,  WanZhen Liang,  
 C. Ochsenfeld,  V. A. Rassolov,  L. V. Slipchenko,  J. E. Subotnik,  
 T. Van Voorhis,  J. M. Herbert,  A. I. Krylov,  P. M. W. Gill,  M. Head-Gordon

 Contributors to earlier versions of Q-Chem not listed above: 
 R. D. Adamson,  B. Austin,  J. Baker,  G. J. O. Beran,  K. Brandhorst,  
 S. T. Brown,  E. F. C. Byrd,  A. K. Chakraborty,  C.-L. Cheng,  
 Siu Hung Chien,  D. M. Chipman,  D. L. Crittenden,  H. Dachsel,  
 R. J. Doerksen,  A. D. Dutoi,  L. Fusti-Molnar,  W. A. Goddard III,  
 A. Golubeva-Zadorozhnaya,  S. R. Gwaltney,  G. Hawkins,  A. Heyden,  
 S. Hirata,  G. Kedziora,  F. J. Keil,  C. Kelley,  Jihan Kim,  R. A. King,  
 R. Z. Khaliullin,  P. P. Korambath,  W. Kurlancheek,  A. M. Lee,  M. S. Lee,  
 S. V. Levchenko,  Ching Yeh Lin,  D. Liotard,  R. C. Lochan,  I. Lotan,  
 P. E. Maslen,  N. Nair,  D. P. O'Neill,  D. Neuhauser,  E. Neuscamman,  
 C. M. Oana,  R. Olson,  B. Peters,  R. Peverati,  P. A. Pieniazek,  
 Y. M. Rhee,  J. Ritchie,  M. A. Rohrdanz,  E. Rosta,  N. J. Russ,  
 H. F. Schaefer III,  N. E. Schultz,  N. Shenvi,  A. C. Simmonett,  A. Sodt,  
 D. Stuck,  K. S. Thanthiriwatte,  V. Vanovschi,  Tao Wang,  A. Warshel,  
 C. F. Williams,  Q. Wu,  X. Xu,  W. Zhang

 Please cite Q-Chem as follows:
 Y. Shao et al., Mol. Phys. 113, 184-215 (2015)
 DOI: 10.1080/00268976.2014.952696

 Q-Chem 5.1.1 for Intel X86 EM64T Linux

 Parts of Q-Chem use Armadillo 8.300.2 (Tropical Shenanigans).
 http://arma.sourceforge.net/

 Q-Chem begins on Fri Nov  6 13:05:16 2020  

Host: n0086.mhg0
0

     Scratch files written to /local/scratch/users/yhljason/SiO_wB97M2_aug-cc-pcVQZ.inp20201106122544//
The previous job contains 0 fragments, simply inherited here
Input Ideriv = 0
Curr. Ideriv = -1
Max.  Ideriv = 0
Analytic post-HF gradients are not available with non-HF exchange
Input Ideriv = 0
Curr. Ideriv = 0
Max.  Ideriv = 0

Checking the input file for inconsistencies... 	...done.

--------------------------------------------------------------
User input:
--------------------------------------------------------------
$molecule
read
$end

$rem

jobtype sp
exchange wb97m(2)
xc_grid 000099000590
basis aug-cc-pcVQZ
max_scf_cycles 200
thresh 14
scf_convergence 8
mem_total 128000
cc_memory 96000
cc_backend xm
mem_static 1500
symmetry false
sym_ignore true
scf_guess read
unrestricted false
scf_algorithm gdm
n_frozen_core 0
$end

$multipole_field
Z -0.0001
$end


--------------------------------------------------------------
 ----------------------------------------------------------------
             Standard Nuclear Orientation (Angstroms)
    I     Atom           X                Y                Z
 ----------------------------------------------------------------
    1      Si      0.0000000000     0.0000000000     0.0000000000
    2      O       0.0000000000     0.0000000000     1.5097000000
 ----------------------------------------------------------------
 Nuclear Repulsion Energy =    39.2580298136 hartrees
 There are       11 alpha and       11 beta electrons
 Requested basis set is aug-cc-pCVQZ
 There are 63 shells and 243 basis functions

 Total QAlloc Memory Limit 128000 MB
 Mega-Array Size      1467 MB
 MEM_STATIC part      1500 MB

                       Distance Matrix (Angstroms)
             Si(  1)
   O (  2)  1.509700
 
 Applying Cartesian multipole field
    Component          Value
    ---------          -----
     (0,0,1)       -1.00000E-04
 Nucleus-field energy     =    -0.0022823356 hartrees
 A cutoff of  1.0D-14 yielded   1954 shell pairs
 There are     29314 function pairs (     48921 Cartesian)
 
 -------------------------------------------------------
 OpenMP Integral Computing Module                       
 Release: version 1.0, May 2013, Q-Chem Inc. Pittsburgh 
 -------------------------------------------------------
 Integral Job Info:
 Integral job number is                      11
 Integral operator is                         1
 short-range coefficients              15000000
 long-range coefficients              100000000
 Omega coefficients                         300
 if combine SR and LR in K                    1
 Integral screening is                        0
 Integral computing path is                   2
 max size of driver memory is           3200000
 size of driver memory is               1704330
 size of scratch memory is             28840424
 max col of scratch BK array              50625
 max len of scratch array in speh3         2114
 max len of scratch index in speh4           50
 max int batch size is                      520
 min int batch size is                       52
 fixed nKL is                                21
 max L of basis functions is                  4
 order of int derivative is                   0
 number of shells is                         63
 number of basis is                         313
 number of cartesian basis is               313
 number of contracted shell pairs          1954
 number of primitive shell pairs           7521
 maxK2 (contraction) of shell pair          169
 max number of K2 of shell pair               1
 max number of CS2 of shell pair            189
 max number of PS2 of shell pair           1014
 mem total for path MDJ                  712981
 -------------------------------------------------------
 Smallest overlap matrix eigenvalue = 3.71E-05
 Guess MOs from SCF MO coefficient file
 Reading MOs from coefficient file
 Reading MOs from coefficient file
 Long-range K will be added via erf
 Coulomb attenuation parameter = 0.3 bohr**(-1)
 A restricted hybrid HF-DFT SCF calculation will be
 performed using Geometric Direct Minimization
 Exchange:     0.1500 Hartree-Fock + 1.0000 wB97M-V + LR-HF
 Correlation:  1.0000 wB97M-V
 Using Euler-Maclaurin-Lebedev (99,590) quadrature formula
 Nonlocal Correlation:  VV10 with C = 0.0100 and b = 6.00 and scale = 1.00000
 Grid used for NLC:  SG-1 standard quadrature
 SCF converges when RMS gradient is below 1.0E-08
Using Q-Chem read-in guess as SCF_GUESS READ specified.

 using 16 threads for integral computing
 -------------------------------------------------------
 OpenMP Integral computing Module                
 Release: version 1.0, May 2013, Q-Chem Inc. Pittsburgh 
 -------------------------------------------------------
 using 16 threads for integral computing
 -------------------------------------------------------
 OpenMP Integral computing Module                
 Release: version 1.0, May 2013, Q-Chem Inc. Pittsburgh 
 -------------------------------------------------------
TIMEINFO->: J/JK contribution 168.82 sec.
 -------------------------------------------------------
 OpenMP BLAS3 based DFT computing Module                
 Release: version 1.0, May 2013, Q-Chem Inc. Pittsburgh 
 -------------------------------------------------------
 -------------------------------------------------------
 OpenMP BLAS3 based DFT computing Module                
 Release: version 1.0, May 2013, Q-Chem Inc. Pittsburgh 
 -------------------------------------------------------
 -------------------------------------------------------
 OpenMP BLAS3 based DFT computing Module                
 Release: version 1.0, May 2013, Q-Chem Inc. Pittsburgh 
 -------------------------------------------------------
 ---------------------------------------
  Cycle       Energy        RMS Gradient
 ---------------------------------------
    1    -364.7499313530      3.90E-10 Normal BFGS step
TIMEINFO->: J/JK contribution 171.66 sec.
   GDM::WARNING energy changes are now smaller than effective accuracy.
   GDM::        calculation will continue, but THRESH should be increased
   GDM::        or SCF_CONVERGENCE decreased.
   GDM::        effective_thresh =   1.100000000000000E-010
 Nonlocal correlation =     0.0298642965
    2    -364.7499313530      5.32E-10 Convergence criterion met
 ---------------------------------------
 wB97M-V orbitals are now ready for the wB97M(2) calculation.
 wB97M(2) energy = Exch (0.62194 SRHF + 1.0 LRHF + wB97M(2)_EXCH) + 
               Corr (wB97M(2)_CORR + 0.34096 MP2 + 0.65904 VV10(b=10))
 SCF time:  CPU 666.92 s  wall 42.66 s
 SCF   energy in the final basis set = -364.61739098
 Total energy in the final basis set = -364.61739098
 
 Components of the MP2 correlation energy:
        aaaa  correlation energy =        -0.0382024503 au
        abab  correlation energy =        -0.2334484807 au
        bbbb  correlation energy =        -0.0382024503 au
        non-Brillouin singles    =        -0.0000000000 au

 Total  MP2   correlation energy =                    -0.30985338 au
        MP2         total energy =                  -364.92724436 au
 
 --------------------------------------------------------------
 
                    Orbital Energies (a.u.)
 --------------------------------------------------------------
 
 Alpha MOs
 -- Occupied --
-66.432 -19.313  -5.472  -3.787  -3.787  -3.780  -1.066  -0.544
 -0.435  -0.435  -0.407
 -- Virtual --
 -0.009  -0.009   0.019   0.035   0.047   0.047   0.090   0.097
  0.097   0.113   0.113   0.118   0.175   0.175   0.178   0.224
  0.251   0.251   0.282   0.291   0.291   0.293   0.293   0.297
  0.297   0.339   0.339   0.368   0.389   0.419   0.419   0.548
  0.548   0.550   0.604   0.604   0.615   0.774   0.774   0.785
  0.785   0.797   0.849   0.849   0.851   0.851   0.858   0.893
  0.893   0.932   0.932   0.940   0.940   0.942   0.942   1.039
  1.050   1.050   1.080   1.080   1.086   1.176   1.247   1.247
  1.430   1.480   1.480   1.540   1.561   1.561   1.635   1.635
  1.755   1.814   1.814   1.962   1.962   1.991   2.057   2.057
  2.172   2.172   2.208   2.208   2.244   2.244   2.287   2.447
  2.447   2.452   2.452   2.467   2.467   2.605   2.605   2.641
  2.641   2.653   2.846   3.123   3.123   3.503   3.521   3.521
  3.724   3.724   3.752   3.752   3.922   3.991   3.991   4.080
  4.080   4.152   4.152   4.201   4.286   4.286   4.303   4.487
  4.487   4.534   4.534   4.925   5.117   5.130   5.130   5.908
  6.467   6.467   6.994   6.994   7.803   9.434   9.434  10.290
 10.290  10.368  10.376  10.376  10.590  10.590  10.594  10.595
 10.595  11.257  11.257  11.524  11.524  11.693  11.693  11.733
 11.961  11.961  12.204  12.406  12.406  12.835  12.835  13.017
 13.439  13.439  13.506  13.506  13.698  13.698  14.217  17.068
 18.147  21.212  21.212  21.523  21.523  22.193  32.118  32.118
 32.815  32.837  32.837  33.669  38.469  38.469  38.474  38.474
 38.479  38.479  38.488  38.488  38.501  46.427  46.427  46.664
 46.664  46.824  47.755  47.755  47.786  47.786  47.882  47.882
 48.023  54.320  63.001  63.873  63.876  64.090  64.090  64.602
100.608 100.608 101.159 102.537 102.537 102.561 102.561 102.591
102.591 102.617 115.732 115.732 116.430 197.697 197.700 197.828
197.828 197.940 215.632 265.610 395.489 395.489 396.054 900.626
 --------------------------------------------------------------
 
          Ground-State Mulliken Net Atomic Charges

     Atom                 Charge (a.u.)
  ----------------------------------------
      1 Si                    0.856796
      2 O                    -0.856796
  ----------------------------------------
  Sum of atomic charges =    -0.000000

 -----------------------------------------------------------------
                    Cartesian Multipole Moments
 -----------------------------------------------------------------
    Charge (ESU x 10^10)
                -0.0000
    Dipole Moment (Debye)
         X      -0.0000      Y      -0.0000      Z      -3.3343
       Tot       3.3343
    Quadrupole Moments (Debye-Ang)
        XX     -16.4763     XY       0.0000     YY     -16.4763
        XZ      -0.0000     YZ      -0.0000     ZZ     -24.1278
    Octopole Moments (Debye-Ang^2)
       XXX      -0.0000    XXY      -0.0000    XYY      -0.0000
       YYY      -0.0000    XXZ      -8.9717    XYZ      -0.0000
       YYZ      -8.9717    XZZ      -0.0000    YZZ      -0.0000
       ZZZ     -34.8723
    Hexadecapole Moments (Debye-Ang^3)
      XXXX     -22.2517   XXXY       0.0000   XXYY      -7.4172
      XYYY       0.0000   YYYY     -22.2517   XXXZ      -0.0000
      XXYZ      -0.0000   XYYZ      -0.0000   YYYZ      -0.0000
      XXZZ     -22.5632   XYZZ      -0.0000   YYZZ     -22.5632
      XZZZ      -0.0000   YZZZ      -0.0000   ZZZZ    -123.6325
 -----------------------------------------------------------------
Archival summary:
1\1\n0086.mhg0\SP\ProcedureUnspecified\BasisUnspecified\i11\yhljason\FriNov613:09:222020FriNov613:09:222020\0\\#,ProcedureUnspecified,BasisUnspecified,\\0,1\Si\O,1,1.5097\\\@

 Total job time:  245.62s(wall), 3870.19s(cpu) 
 Fri Nov  6 13:09:22 2020

        *************************************************************
        *                                                           *
        *  Thank you very much for using Q-Chem.  Have a nice day.  *
        *                                                           *
        *************************************************************


