                  Welcome to Q-Chem
     A Quantum Leap Into The Future Of Chemistry


 Q-Chem 5.3 (devel), Q-Chem, Inc., Pleasanton, CA (2020)

 Yihan Shao,  Zhengting Gan,  E. Epifanovsky,  A. T. B. Gilbert,  M. Wormit,  
 J. Kussmann,  A. W. Lange,  A. Behn,  Jia Deng,  Xintian Feng,  D. Ghosh,  
 M. Goldey,  P. R. Horn,  L. D. Jacobson,  I. Kaliman,  T. Kus,  A. Landau,  
 Jie Liu,  E. I. Proynov,  R. M. Richard,  R. P. Steele,  E. J. Sundstrom,  
 H. L. Woodcock III,  P. M. Zimmerman,  D. Zuev,  B. Alam,  B. Albrecht,  
 E. Alguire,  S. A. Baeppler,  D. Barton,  Z. Benda,  Y. A. Bernard,  
 E. J. Berquist,  K. B. Bravaya,  H. Burton,  K. Carter-Fenk,  D. Casanova,  
 Chun-Min Chang,  Yunqing Chen,  A. Chien,  K. D. Closser,  M. P. Coons,  
 S. Coriani,  S. Dasgupta,  A. L. Dempwolff,  M. Diedenhofen,  Hainam Do,  
 R. G. Edgar,  Po-Tung Fang,  S. Faraji,  S. Fatehi,  Qingguo Feng,  
 J. Fosso-Tande,  J. Gayvert,  Qinghui Ge,  A. Ghysels,  G. Gidofalvi,  
 J. Gomes,  J. Gonthier,  A. Gunina,  D. Hait,  M. W. D. Hanson-Heine,  
 P. H. P. Harbach,  A. W. Hauser,  M. F. Herbst,  J. E. Herr,  
 E. G. Hohenstein,  Z. C. Holden,  Kerwin Hui,  B. C. Huynh,  T.-C. Jagau,  
 Hyunjun Ji,  B. Kaduk,  K. Khistyaev,  Jaehoon Kim,  P. Klunzinger,  K. Koh,  
 D. Kosenkov,  L. Koulias,  T. Kowalczyk,  C. M. Krauter,  A. Kunitsa,  
 Ka Un Lao,  A. Laurent,  K. V. Lawler,  Joonho Lee,  D. Lefrancois,  
 S. Lehtola,  D. S. Levine,  Yi-Pei Li,  You-Sheng Lin,  Fenglai Liu,  
 Kuan-Yu Liu,  E. Livshits,  M. Loipersberger,  A. Luenser,  P. Manohar,  
 E. Mansoor,  S. F. Manzer,  Shan-Ping Mao,  Yuezhi Mao,  N. Mardirossian,  
 A. V. Marenich,  T. Markovich,  L. A. Martinez-Martinez,  S. A. Maurer,  
 N. J. Mayhall,  S. C. McKenzie,  J.-M. Mewes,  P. Morgante,  A. F. Morrison,  
 J. W. Mullinax,  K. Nanda,  T. S. Nguyen-Beck,  R. Olivares-Amaya,  
 K. J. Oosterbaan,  J. A. Parkhill,  S. K. Paul,  F. Pavosevic,  Zheng Pei,  
 T. M. Perrine,  F. Plasser,  P. Pokhilko,  S. Prager,  A. Prociuk,  
 E. Ramos,  B. Rana,  D. R. Rehn,  F. Rob,  M. Scheurer,  M. Schneider,  
 N. Sergueev,  S. M. Sharada,  S. Sharma,  D. W. Small,  T. Stauch,  
 C. J. Stein,  T. Stein,  Yu-Chuan Su,  S. P. Veccham,  Zhen Tao,  
 A. J. W. Thom,  A. Tkatchenko,  T. Tsuchimochi,  N. M. Tubman,  L. Vogt,  
 M. L. Vidal,  O. Vydrov,  M. A. Watson,  J. Wenzel,  M. de Wergifosse,  
 T. A. Wesolowski,  A. White,  J. Witte,  A. Yamada,  Jun Yang,  K. Yao,  
 S. Yeganeh,  S. R. Yost,  Zhi-Qiang You,  A. Zech,  Igor Ying Zhang,  
 Xing Zhang,  Yan Zhao,  Ying Zhu,  B. R. Brooks,  G. K. L. Chan,  
 C. J. Cramer,  M. S. Gordon,  W. J. Hehre,  A. Klamt,  M. W. Schmidt,  
 C. D. Sherrill,  D. G. Truhlar,  A. Aspuru-Guzik,  R. Baer,  A. T. Bell,  
 N. A. Besley,  Jeng-Da Chai,  A. E. DePrince, III,  R. A. DiStasio Jr.,  
 A. Dreuw,  B. D. Dunietz,  T. R. Furlani,  Chao-Ping Hsu,  Yousung Jung,  
 Jing Kong,  D. S. Lambrecht,  WanZhen Liang,  C. Ochsenfeld,  
 V. A. Rassolov,  L. V. Slipchenko,  J. E. Subotnik,  T. Van Voorhis,  
 J. M. Herbert,  A. I. Krylov,  P. M. W. Gill,  M. Head-Gordon

 Contributors to earlier versions of Q-Chem not listed above: 
 R. D. Adamson,  B. Austin,  J. Baker,  G. J. O. Beran,  K. Brandhorst,  
 S. T. Brown,  E. F. C. Byrd,  A. K. Chakraborty,  C.-L. Cheng,  
 Siu Hung Chien,  D. M. Chipman,  D. L. Crittenden,  H. Dachsel,  
 R. J. Doerksen,  A. D. Dutoi,  L. Fusti-Molnar,  W. A. Goddard III,  
 A. Golubeva-Zadorozhnaya,  S. R. Gwaltney,  G. Hawkins,  A. Heyden,  
 S. Hirata,  G. Kedziora,  F. J. Keil,  C. Kelley,  Jihan Kim,  R. A. King,  
 R. Z. Khaliullin,  P. P. Korambath,  W. Kurlancheek,  A. M. Lee,  M. S. Lee,  
 S. V. Levchenko,  Ching Yeh Lin,  D. Liotard,  R. C. Lochan,  I. Lotan,  
 P. E. Maslen,  N. Nair,  D. P. O'Neill,  D. Neuhauser,  E. Neuscamman,  
 C. M. Oana,  R. Olson,  B. Peters,  R. Peverati,  P. A. Pieniazek,  
 Y. M. Rhee,  J. Ritchie,  M. A. Rohrdanz,  E. Rosta,  N. J. Russ,  
 H. F. Schaefer III,  N. E. Schultz,  N. Shenvi,  A. C. Simmonett,  A. Sodt,  
 D. Stuck,  K. S. Thanthiriwatte,  V. Vanovschi,  Tao Wang,  A. Warshel,  
 C. F. Williams,  Q. Wu,  X. Xu,  W. Zhang

 Please cite Q-Chem as follows:
 Y. Shao et al., Mol. Phys. 113, 184-215 (2015)
 DOI: 10.1080/00268976.2014.952696

 Q-Chem 5.3.0 for Intel X86 EM64T Linux

 Parts of Q-Chem use Armadillo 9.800.1 (Horizon Scraper).
 http://arma.sourceforge.net/

 Q-Chem begins on Mon Aug 24 19:01:03 2020  

n0041.mhg0
Host: 0

     Scratch files written to /local/scratch/users/yhljason/NaLi_ccsdT_aug-cc-pcV5Z.inp20200824154414//
Processing $rem in /clusterfs/mhg/diptarka/qchem_transmom//config/preferences:
Processing $rem in /global/home/users/yhljason/.qchemrc:

Checking the input file for inconsistencies... 	...done.

--------------------------------------------------------------
User input:
--------------------------------------------------------------
$molecule
0 1
Li1     0.0000  0.0000  0.0000
Na2     0.0000  0.0000  2.8890
$end

$rem
jobtype sp
method CCSD(T)
xc_grid 000099000590
basis gen
use_libpt true
max_scf_cycles 200
thresh 14
scf_convergence 8
scf_algorithm gdm
symmetry false
sym_ignore true
unrestricted true
gen_scfman true
internal_stability_iter 15
internal_stability_davidson_iter 200
mem_total 128000
cc_memory 96000
cc_backend xm
mem_static 1500
n_frozen_core 0
$end

$basis
****
Li     0
S   14   1.00
  29493.0000000              1.8000000e-05
   4417.1010000              1.4100000e-04
   1005.2230000              7.3900000e-04
    284.7009000              3.1070000e-03
     92.8654300              1.1135000e-02
     33.5117900              3.4670000e-02
     13.0418000              9.2171000e-02
      5.3575360              1.9957600e-01
      2.2793380              3.2883600e-01
      0.9939900              3.4597500e-01
      0.4334710              1.4276100e-01
      0.0955660              5.3190000e-03
      0.0446570             -2.1010000e-03
      0.0206330              8.1500000e-04
S   14   1.00
  29493.0000000             -3.0000000e-06
   4417.1010000             -2.2000000e-05
   1005.2230000             -1.1500000e-04
    284.7009000             -4.8700000e-04
     92.8654300             -1.7460000e-03
     33.5117900             -5.5200000e-03
     13.0418000             -1.4928000e-02
      5.3575360             -3.4206000e-02
      2.2793380             -6.2155000e-02
      0.9939900             -9.5902000e-02
      0.4334710             -1.0397200e-01
      0.0955660              3.0715100e-01
      0.0446570              5.7902800e-01
      0.0206330              2.2323100e-01
S   1   1.00
      0.4334710              1.0000000e+00
S   1   1.00
      0.0955660              1.0000000e+00
S   1   1.00
      0.0446570              1.0000000e+00
S   1   1.00
      0.0206330              1.0000000e+00
P   8   1.00
     19.6635000              5.4000000e-04
      4.6231100              3.8650000e-03
      1.4137800              1.5171000e-02
      0.4737210              4.9204000e-02
      0.1761510              1.5466100e-01
      0.0726750              3.6009500e-01
      0.0321410              4.4185200e-01
      0.0145560              1.5600000e-01
P   1   1.00
      0.1761510              1.0000000e+00
P   1   1.00
      0.0726750              1.0000000e+00
P   1   1.00
      0.0321410              1.0000000e+00
P   1   1.00
      0.0145560              1.0000000e+00
D   1   1.00
      0.5310000              1.0000000e+00
D   1   1.00
      0.2481000              1.0000000e+00
D   1   1.00
      0.1159000              1.0000000e+00
D   1   1.00
      0.0542000              1.0000000e+00
F   1   1.00
      0.2920000              1.0000000e+00
F   1   1.00
      0.1641000              1.0000000e+00
F   1   1.00
      0.0922000              1.0000000e+00
G   1   1.00
      0.2971000              1.0000000e+00
G   1   1.00
      0.1500000              1.0000000e+00
H   1   1.00
      0.2949000              1.0000000e+00
S   1   1.00
     27.8558000              1.0000000
S   1   1.00
     12.5082000              1.0000000
S   1   1.00
      5.6166000              1.0000000
S   1   1.00
      2.5221000              1.0000000
P   1   1.00
     29.2095000              1.0000000
P   1   1.00
     11.1763000              1.0000000
P   1   1.00
      4.2763000              1.0000000
P   1   1.00
      1.6362000              1.0000000
D   1   1.00
     19.8455000              1.0000000
D   1   1.00
      7.1492000              1.0000000
D   1   1.00
      2.5754000              1.0000000
F   1   1.00
     13.2502000              1.0000000
F   1   1.00
      4.1991000              1.0000000
G   1   1.00
      8.4093000              1.0000000
S   1   1.00
      0.0061000              1.0000000
P   1   1.00
      0.0065000              1.0000000
D   1   1.00
      0.0235000              1.0000000
F   1   1.00
      0.0448000              1.0000000
G   1   1.00
      0.0724000              1.0000000
H   1   1.00
      0.1274000              1.0000000
****
Na     0
S 20 1.00
   2.185572E+06     2.000000E-06
   3.272284E+05     1.800000E-05
   7.446684E+04     9.500000E-05
   2.109315E+04     4.010000E-04
   6.881898E+03     1.459000E-03
   2.484696E+03     4.746000E-03
   9.692232E+02     1.403100E-02
   4.020643E+02     3.773300E-02
   1.753545E+02     9.070200E-02
   7.965199E+01     1.864660E-01
   3.738672E+01     3.018370E-01
   1.800194E+01     3.238300E-01
   8.724371E+00     1.687000E-01
   3.857715E+00     2.308300E-02
   1.815686E+00    -1.470000E-04
   8.382540E-01     1.099000E-03
   3.819350E-01    -1.010000E-04
   7.167900E-02     6.100000E-05
   3.391600E-02    -5.300000E-05
   1.652500E-02     1.800000E-05
S 20 1.00
   2.185572E+06    -1.000000E-06
   3.272284E+05    -4.000000E-06
   7.446684E+04    -2.300000E-05
   2.109315E+04    -9.800000E-05
   6.881898E+03    -3.570000E-04
   2.484696E+03    -1.165000E-03
   9.692232E+02    -3.464000E-03
   4.020643E+02    -9.495000E-03
   1.753545E+02    -2.358700E-02
   7.965199E+01    -5.239400E-02
   3.738672E+01    -9.802800E-02
   1.800194E+01    -1.436730E-01
   8.724371E+00    -1.022980E-01
   3.857715E+00     1.380290E-01
   1.815686E+00     4.290060E-01
   8.382540E-01     4.478130E-01
   3.819350E-01     1.445430E-01
   7.167900E-02     2.617000E-03
   3.391600E-02    -1.192000E-03
   1.652500E-02     4.400000E-04
S 1 1.00
   8.724371E+00     1.000000E+00
S 1 1.00
   3.857715E+00     1.000000E+00
S 1 1.00
   1.815686E+00     1.000000E+00
S 1 1.00
   8.382540E-01     1.000000E+00
S 1 1.00
   3.819350E-01     1.000000E+00
S 1 1.00
   7.167900E-02     1.000000E+00
S 1 1.00
   3.391600E-02     1.000000E+00
S 1 1.00
   1.652500E-02     1.000000E+00
P 14 1.00
   1.119578E+03     1.620000E-04
   2.653239E+02     1.408000E-03
   8.599553E+01     7.586000E-03
   3.253759E+01     2.961500E-02
   1.351565E+01     8.847700E-02
   5.966856E+00     1.955190E-01
   2.700045E+00     3.066210E-01
   1.218512E+00     3.412420E-01
   5.421870E-01     2.296900E-01
   2.274130E-01     5.492100E-02
   1.330400E-01    -3.441000E-03
   5.757700E-02     2.340000E-03
   2.597100E-02    -6.620000E-04
   1.190100E-02     1.990000E-04
P 14 1.00
   1.119578E+03    -1.600000E-05
   2.653239E+02    -1.400000E-04
   8.599553E+01    -7.540000E-04
   3.253759E+01    -2.968000E-03
   1.351565E+01    -8.919000E-03
   5.966856E+00    -2.002900E-02
   2.700045E+00    -3.138000E-02
   1.218512E+00    -3.648900E-02
   5.421870E-01    -2.962500E-02
   2.274130E-01    -1.014600E-02
   1.330400E-01     8.212800E-02
   5.757700E-02     3.345530E-01
   2.597100E-02     5.081420E-01
   1.190100E-02     1.966360E-01
P 1 1.00
   1.330400E-01     1.000000E+00
P 1 1.00
   5.757700E-02     1.000000E+00
P 1 1.00
   2.597100E-02     1.000000E+00
P 1 1.00
   1.190100E-02     1.000000E+00
P 1 1.00
   1.096200E+01     1.000000E+00
P 1 1.00
   4.989600E+00     1.000000E+00
P 1 1.00
   2.271200E+00     1.000000E+00
P 1 1.00
   1.033800E+00     1.000000E+00
D 1 1.00
   4.898000E-01     1.000000E+00
D 1 1.00
   2.283000E-01     1.000000E+00
D 1 1.00
   1.064000E-01     1.000000E+00
D 1 1.00
   4.960000E-02     1.000000E+00
D 1 1.00
   1.647900E+01     1.000000E+00
D 1 1.00
   7.331500E+00     1.000000E+00
D 1 1.00
   3.261800E+00     1.000000E+00
D 1 1.00
   1.451200E+00     1.000000E+00
F 1 1.00
   2.493000E-01     1.000000E+00
F 1 1.00
   1.357000E-01     1.000000E+00
F 1 1.00
   7.390000E-02     1.000000E+00
F 1 1.00
   9.722700E+00     1.000000E+00
F 1 1.00
   3.988100E+00     1.000000E+00
F 1 1.00
   1.635900E+00     1.000000E+00
G 1 1.00
   2.318000E-01     1.000000E+00
G 1 1.00
   1.222000E-01     1.000000E+00
G 1 1.00
   7.225000E+00     1.000000E+00
G 1 1.00
   2.647100E+00     1.000000E+00
H 1 1.00
   2.240000E-01     1.000000E+00
H 1 1.00
   5.134600E+00     1.000000E+00
S   1   1.00
      0.0051000              1.0000000
P   1   1.00
      0.0055000              1.0000000
D   1   1.00
      0.0229000              1.0000000
F   1   1.00
      0.0414000              1.0000000
G   1   1.00
      0.0732000              1.0000000
H   1   1.00
      0.1048000              1.0000000
****
$end

--------------------------------------------------------------
 ----------------------------------------------------------------
             Standard Nuclear Orientation (Angstroms)
    I     Atom           X                Y                Z
 ----------------------------------------------------------------
    1      Li      0.0000000000     0.0000000000     0.0000000000
    2      Na      0.0000000000     0.0000000000     2.8890000000
 ----------------------------------------------------------------
 Nuclear Repulsion Energy =           6.04459950 hartrees
 There are        7 alpha and        7 beta electrons
 Requested basis set is non-standard
 There are 87 shells and 397 basis functions
 Total memory of 128000 MB is distributed as follows: 
   MEM_STATIC is set to 1500 MB
   QALLOC/CCMAN JOB total memory use is  126500 MB
 Warning: actual memory use might exceed 128000 MB

 Total QAlloc Memory Limit 128000 MB
 Mega-Array Size      1467 MB
 MEM_STATIC part      1500 MB

                       Distance Matrix (Angstroms)
             Li(  1)
   Na(  2)  2.889000

 A cutoff of  1.0D-14 yielded   3625 shell pairs
 There are     76127 function pairs (    150957 Cartesian)
 Smallest overlap matrix eigenvalue = 3.01E-07
 Linear dependence detected in AO basis
 Tighter screening thresholds may be required for diffuse basis sets
 Use S2THRESH > 14 and THRESH = 14 in case of SCF convergence issues
 Number of orthogonalized atomic orbitals = 393
 Maximum deviation from orthogonality = 1.734E-10

 Scale SEOQF with 1.000000e-02/1.000000e-02/1.000000e-02

 Standard Electronic Orientation quadrupole field applied
 Nucleus-field energy     =    -0.0000000010 hartrees
 Guess MOs from core Hamiltonian diagonalization

 -----------------------------------------------------------------------
  General SCF calculation program by
  Eric Jon Sundstrom, Paul Horn, Yuezhi Mao, Dmitri Zuev, Alec White,
  David Stuck, Shaama M.S., Shane Yost, Joonho Lee, David Small,
  Daniel Levine, Susi Lehtola, Hugh Burton, Evgeny Epifanovsky,
  Bang C. Huynh
 -----------------------------------------------------------------------
 Hartree-Fock
Running Object-Oriented UKS (UHF)
We will preform up to 15 macro iterations over saddle points until a stable solution is found
Energy prior to optimization (guess energy) = -126.063140342383
Begin Timing: Total SCF Calculation
Begin Timing: SCF Single Stationary Point Calculation
begin iterations for algorithm: GDM          
the SCF tolerance is set to 1.00e-08
    1    -126.0631403424      2.74e+00     00000  Descent step
    2    -129.4146118912      4.67e+00     00000 Line search: understep
    3    -144.8059930523      2.76e+00     00000  Descent step
    4    -146.9821701459      1.58e+00     00000  Descent step
    5    -148.8011551806      1.28e+00     00000 Line search: understep
    6    -154.5351157625      1.14e+00     00000  Descent step
    7    -156.0468089002      1.88e+00     00000  Descent step
    8    -157.5338718657      6.33e-01     00000  Descent step
    9    -158.5073396341      6.43e-01     00000  Descent step
   10    -159.5202384938      4.87e-01     00000  Descent step
   11    -160.2693944002      4.13e-01     00000  Descent step
   12    -160.9075470016      5.25e-01     00000  Descent step
   13    -161.5201213165      2.93e-01     00000  Descent step
   14    -162.0089439044      4.00e-01     00000  Descent step
   15    -162.4549768474      8.29e-01     00000  Descent step
   16    -162.9785426897      3.73e-01     00000  Descent step
   17    -163.2884729439      1.89e-01     00000  Descent step
   18    -163.5066484515      4.98e-01     00000  Descent step
   19    -163.8040979829      1.43e-01     00000  Descent step
   20    -163.9336989081      8.52e-02     00000  Dog-leg BFGS step
   21    -163.9985790917      6.88e-02     00000  Dog-leg BFGS step
   22    -164.0229254560      1.63e-01     00000  Dog-leg BFGS step
   23    -164.1636576078      3.84e-01     00000 Line search: understep
   24    -165.8174016417      4.17e+00     00000  Descent step
   25    -167.6270808645      7.11e-01     00000  Descent step
   26    -168.1641654590      4.79e-01     00000  Descent step
   27    -168.5599695128      3.28e-01     00000  Descent step
   28    -168.8411288889      1.86e-01     00000  Descent step
   29    -169.0230116231      8.60e-02     00000  Descent step
   30    -169.1133270255      5.03e-02     00000  Dog-leg BFGS step
   31    -169.0935164600      5.44e-02     00000 Line search: overstep
   32    -169.1165309931      4.47e-02     00000  Dog-leg BFGS step
   33    -169.1246877969      3.37e-02     00000  Normal BFGS step
   34    -169.1294580364      2.01e-02     00000  Dog-leg BFGS step
   35    -169.1004362681      4.33e-02     00000 Line search: overstep
   36    -169.1309750683      1.21e-02     00000  Normal BFGS step
   37    -169.1314294525      1.14e-02     00000  Normal BFGS step
   38    -169.1308666341      9.49e-03     00000 Line search: overstep
   39    -169.1318502486      8.97e-03     00000  Normal BFGS step
   40    -169.1200539568      6.03e-02     00000 Line search: overstep
   41    -169.1319190652      3.09e-03     00000  Normal BFGS step
   42    -169.1319951303      3.62e-03     00000  Normal BFGS step
   43    -169.1321132585      7.30e-04     00000  Normal BFGS step
   44    -169.1321153322      2.52e-04     00000  Normal BFGS step
   45    -169.1321157260      3.58e-05     00000  Normal BFGS step
   46    -169.1321157395      1.36e-05     00000  Normal BFGS step
   47    -169.1321157414      2.16e-06     00000  Normal BFGS step
   48    -169.1321157414      3.86e-06     00000  Normal BFGS step
   49    -169.1321157416      2.30e-05     00000  Normal BFGS step
   50    -169.1321157421      4.25e-05     00000  Normal BFGS step
   51    -169.1321157441      8.37e-05     00000  Normal BFGS step
   52    -169.1321157517      1.61e-04     00000 Line search: understep
   53    -169.1321160334      8.54e-04     00000 Line search: understep
   54    -169.1321358299      7.09e-03     00000 Line search: understep
   55    -169.1337049188      6.27e-02     00000 Line search: understep
   56    -169.2243311106      1.28e-01     00000  Dog-leg BFGS step
   57    -169.2824245117      2.92e-02     00000  Normal BFGS step
   58    -169.2922561917      8.70e-03     00000  Normal BFGS step
   59    -169.2933968786      4.85e-03     00000  Normal BFGS step
   60    -169.2938971587      1.39e-03     00000  Normal BFGS step
   61    -169.2939917623      1.19e-03     00000  Normal BFGS step
   62    -169.2940162852      7.90e-04     00000  Normal BFGS step
   63    -169.2940261480      2.52e-04     00000  Normal BFGS step
   64    -169.2940275294      6.25e-05     00000  Normal BFGS step
   65    -169.2940276301      3.31e-05     00000  Normal BFGS step
   66    -169.2940276384      7.16e-06     00000  Normal BFGS step
   67    -169.2940276389      2.29e-06     00000  Normal BFGS step
   68    -169.2940276390      9.76e-07     00000  Normal BFGS step
   69    -169.2940276390      4.88e-07     00000  Normal BFGS step
   70    -169.2940276390      4.39e-07     00000  Normal BFGS step
   71    -169.2940276390      5.08e-07     00000  Normal BFGS step
   72    -169.2940276390      6.51e-07     00000  Normal BFGS step
   73    -169.2940276390      1.43e-06     00000  Normal BFGS step
   74    -169.2940276394      1.42e-05     00000  Normal BFGS step
   75    -169.2940276398      6.93e-06     00000  Normal BFGS step
   76    -169.2940276449      1.78e-05     00000  Normal BFGS step
   77    -169.2940276820      2.42e-05     00000 Line search: understep
   78    -169.2940286943      1.60e-04     00000 Line search: understep
   79    -169.2940813023      1.49e-03     00000 Line search: understep
   80    -169.2529273414      9.59e-02     00000 Line search: overstep
   81    -169.2941193565      2.83e-03     00000  Normal BFGS step
   82    -169.2941161741      1.68e-03     00000 Line search: overstep
   83    -169.2941277048      2.20e-03     00000  Dog-leg BFGS step
   84    -169.2918759266      1.81e-02     00000 Line search: overstep
   85    -169.2942827842      2.81e-03     00000 Line search: understep
   86    -169.2926864358      1.47e-02     00000 Line search: overstep
   87    -169.2943507931      3.17e-03     00000  Dog-leg BFGS step
   88    -169.2900056677      2.36e-02     00000 Line search: overstep
   89    -169.2944448101      3.41e-03     00000  Normal BFGS step
   90    -169.2945908753      4.89e-03     00000  Normal BFGS step
   91    -169.2947091241      2.12e-03     00000  Normal BFGS step
   92    -169.2947829887      1.18e-03     00000  Normal BFGS step
   93    -169.2948373470      1.12e-03     00000  Normal BFGS step
   94    -169.2948641536      9.02e-04     00000  Normal BFGS step
   95    -169.2948839099      5.77e-04     00000  Normal BFGS step
   96    -169.2948896729      4.20e-04     00000  Normal BFGS step
   97    -169.2948922057      2.19e-04     00000  Normal BFGS step
   98    -169.2948925186      8.29e-05     00000  Normal BFGS step
   99    -169.2948926138      5.31e-05     00000  Normal BFGS step
  100    -169.2948926611      3.86e-05     00000  Normal BFGS step
  101    -169.2948926924      2.75e-05     00000  Normal BFGS step
  102    -169.2948927060      2.32e-05     00000  Normal BFGS step
  103    -169.2948927121      1.38e-05     00000  Normal BFGS step
  104    -169.2948927146      6.45e-06     00000  Normal BFGS step
  105    -169.2948927151      2.31e-06     00000  Normal BFGS step
  106    -169.2948927151      5.55e-07     00000  Normal BFGS step
  107    -169.2948927151      1.78e-07     00000  Normal BFGS step
  108    -169.2948927151      4.14e-08     00000  Normal BFGS step
  109    -169.2948927151      1.13e-08     00000  Normal BFGS step
  110    -169.2948927151      2.85e-09     00000 Convergence criterion met
Timing for Single Stationary Point: 12076.00s (wall), 94933.70s (cpu)
Begin Timing: Stability
===================================================
Beginning Test for Internal Stability
===================================================
generating davidson guess vectors based on koopmans excitations
 Warning: Hessian-vector products not implemented
 Finite difference Hessian-vector products will be used.
computing hessian-vector products by finite difference
    1      6.60e-01     00000 Davidson Iteration
computing hessian-vector products by finite difference
    2      6.50e-01     00000 Davidson Iteration
computing hessian-vector products by finite difference
    3      2.60e-01     00000 Davidson Iteration
computing hessian-vector products by finite difference
    4      3.51e-02     00000 Davidson Iteration
computing hessian-vector products by finite difference
    5      1.34e-02     00000 Davidson Iteration
computing hessian-vector products by finite difference
    6      2.87e-03     00000 Davidson Iteration
computing hessian-vector products by finite difference
    7      9.74e-04     00000 Davidson Iteration
computing hessian-vector products by finite difference
    8      2.76e-04     00000 Davidson Iteration
computing hessian-vector products by finite difference
    9      4.04e-03     00000 Davidson Iteration
computing hessian-vector products by finite difference
   10      2.22e-03     00000 Davidson Iteration
computing hessian-vector products by finite difference
   11      1.36e-04     00000 Davidson Iteration
computing hessian-vector products by finite difference
   12      2.47e-05     00000 Davidson Iteration
computing hessian-vector products by finite difference
   13      1.00e-04     00000 Davidson Iteration
computing hessian-vector products by finite difference
   14      9.97e-05     00000 Davidson Iteration
computing hessian-vector products by finite difference
   15      1.32e-04     00000 Davidson Iteration
computing hessian-vector products by finite difference
   16      4.51e-05     00000 Davidson Converged
converged_eigenvalues
   0.0492
   0.0625
   0.0110
Threshold for negative eigenvalues: -1.0e-05
solution was a local minimum (stable)
===================================================
End Test for Internal Stability
===================================================
Timing for Internal Stability: 9096.00s (wall), 71067.63s (cpu)
Our SCF solution is stable!
Timing for Total SCF: 21172.00s (wall), 166001.46s (cpu)
 Total energy in the final basis set =     -169.2948927151
<S^2> =          0.323911524
    ==================================================
              The end of Object-Oriented SCFman       
    ==================================================


 ------------------------------------------------------------------------------

   CCMAN2: suite of methods based on coupled cluster
           and equation of motion theories.

   Components:
   * libvmm-1.3-trunk
     by Evgeny Epifanovsky, Ilya Kaliman.
   * libtensor-2.5-trunk
     by Evgeny Epifanovsky, Michael Wormit, Dmitry Zuev, Sam Manzer, 
        Ilya Kaliman.
   * libcc-2.5-trunk
     by Evgeny Epifanovsky, Arik Landau, Tomasz Kus, Kirill Khistyaev, 
        Dmitry Zuev, Prashant Manohar, Xintian Feng, Anna Krylov, 
        Matthew Goldey, Alec White, Thomas Jagau, Kaushik Nanda, 
        Anastasia Gunina, Alexander Kunitsa, Joonho Lee.

   CCMAN original authors:
   Anna I. Krylov, C. David Sherrill, Steven R. Gwaltney,
   Edward F. C. Byrd (2000)
   Sergey V. Levchenko, Lyudmila V. Slipchenko, Tao Wang,
   Ana-Maria C. Cristian (2003)
   Piotr A. Pieniazek, C. Melania Oana, Evgeny Epifanovsky (2007)
   Prashant Manohar (2009)

 ------------------------------------------------------------------------------


 Calculation will run on 8 cores using libxm for tensor contractions

 ------------------------------------------------------------------------------
Libxm Tensor Library
Copyright (c) 2014-2018 Ilya Kaliman
https://github.com/ilyak/libxm
Reference: https://dx.doi.org/10.1002/jcc.24713
 ------------------------------------------------------------------------------


 Alpha MOs, Unrestricted
 -- Occupied --                  
-40.467  -2.785  -2.465  -1.508  -1.508  -1.508  -0.185
  1 A     2 A     3 A     4 A     5 A     6 A     7 A                          
 -- Virtual --                   
  0.003   0.007   0.010   0.010   0.015   0.017   0.017   0.018
  8 A     9 A    10 A    11 A    12 A    13 A    14 A    15 A                  
  0.029   0.029   0.030   0.043   0.046   0.046   0.051   0.065
 16 A    17 A    18 A    19 A    20 A    21 A    22 A    23 A                  
  0.065   0.079   0.079   0.079   0.081   0.081   0.082   0.084
 24 A    25 A    26 A    27 A    28 A    29 A    30 A    31 A                  
  0.084   0.092   0.092   0.093   0.108   0.109   0.109   0.128
 32 A    33 A    34 A    35 A    36 A    37 A    38 A    39 A                  
  0.150   0.150   0.176   0.176   0.180   0.180   0.181   0.187
 40 A    41 A    42 A    43 A    44 A    45 A    46 A    47 A                  
  0.188   0.188   0.192   0.192   0.193   0.193   0.201   0.201
 48 A    49 A    50 A    51 A    52 A    53 A    54 A    55 A                  
  0.206   0.206   0.210   0.222   0.222   0.227   0.235   0.249
 56 A    57 A    58 A    59 A    60 A    61 A    62 A    63 A                  
  0.249   0.251   0.251   0.294   0.329   0.329   0.341   0.342
 64 A    65 A    66 A    67 A    68 A    69 A    70 A    71 A                  
  0.342   0.366   0.366   0.380   0.380   0.380   0.387   0.387
 72 A    73 A    74 A    75 A    76 A    77 A    78 A    79 A                  
  0.393   0.393   0.410   0.410   0.417   0.417   0.421   0.421
 80 A    81 A    82 A    83 A    84 A    85 A    86 A    87 A                  
  0.421   0.433   0.433   0.441   0.441   0.442   0.447   0.447
 88 A    89 A    90 A    91 A    92 A    93 A    94 A    95 A                  
  0.448   0.461   0.461   0.462   0.462   0.477   0.477   0.486
 96 A    97 A    98 A    99 A   100 A   101 A   102 A   103 A                  
  0.486   0.500   0.500   0.504   0.559   0.577   0.613   0.613
104 A   105 A   106 A   107 A   108 A   109 A   110 A   111 A                  
  0.634   0.634   0.642   0.642   0.671   0.671   0.683   0.683
112 A   113 A   114 A   115 A   116 A   117 A   118 A   119 A                  
  0.687   0.749   0.749   0.757   0.762   0.762   0.792   0.792
120 A   121 A   122 A   123 A   124 A   125 A   126 A   127 A                  
  0.800   0.800   0.805   0.805   0.808   0.808   0.814   0.814
128 A   129 A   130 A   131 A   132 A   133 A   134 A   135 A                  
  0.820   0.820   0.823   0.832   0.832   0.850   0.854   0.854
136 A   137 A   138 A   139 A   140 A   141 A   142 A   143 A                  
  0.864   0.864   0.888   0.888   0.899   0.899   0.902   0.930
144 A   145 A   146 A   147 A   148 A   149 A   150 A   151 A                  
  0.930   0.933   0.933   0.952   0.952   0.959   0.962   0.962
152 A   153 A   154 A   155 A   156 A   157 A   158 A   159 A                  
  0.978   0.985   0.985   1.021   1.036   1.036   1.045   1.045
160 A   161 A   162 A   163 A   164 A   165 A   166 A   167 A                  
  1.082   1.082   1.112   1.112   1.123   1.123   1.130   1.156
168 A   169 A   170 A   171 A   172 A   173 A   174 A   175 A                  
  1.156   1.273   1.296   1.296   1.333   1.333   1.363   1.409
176 A   177 A   178 A   179 A   180 A   181 A   182 A   183 A                  
  1.409   1.613   1.613   1.618   1.618   1.632   1.632   1.633
184 A   185 A   186 A   187 A   188 A   189 A   190 A   191 A                  
  1.645   1.645   1.647   1.647   1.670   1.670   1.671   1.671
192 A   193 A   194 A   195 A   196 A   197 A   198 A   199 A                  
  1.676   1.676   1.681   1.740   1.740   1.742   1.746   1.746
200 A   201 A   202 A   203 A   204 A   205 A   206 A   207 A                  
  1.792   1.792   1.854   1.854   1.896   1.926   1.933   1.933
208 A   209 A   210 A   211 A   212 A   213 A   214 A   215 A                  
  1.958   1.958   2.027   2.027   2.052   2.052   2.087   2.087
216 A   217 A   218 A   219 A   220 A   221 A   222 A   223 A                  
  2.088   2.108   2.108   2.109   2.109   2.129   2.129   2.155
224 A   225 A   226 A   227 A   228 A   229 A   230 A   231 A                  
  2.155   2.184   2.214   2.214   2.285   2.285   2.298   2.298
232 A   233 A   234 A   235 A   236 A   237 A   238 A   239 A                  
  2.310   2.310   2.391   2.446   2.472   2.472   2.540   2.540
240 A   241 A   242 A   243 A   244 A   245 A   246 A   247 A                  
  2.711   2.711   2.826   2.867   2.916   2.916   3.777   3.777
248 A   249 A   250 A   251 A   252 A   253 A   254 A   255 A                  
  4.032   4.576   4.576   4.838   4.887   4.915   4.915   5.059
256 A   257 A   258 A   259 A   260 A   261 A   262 A   263 A                  
  5.069   5.069   6.128   6.128   6.150   6.150   6.216   6.216
264 A   265 A   266 A   267 A   268 A   269 A   270 A   271 A                  
  6.258   8.684   8.684   8.768   8.768   8.781  10.080  10.753
272 A   273 A   274 A   275 A   276 A   277 A   278 A   279 A                  
 10.753  11.225  11.748  11.748  11.880  11.880  11.918  12.646
280 A   281 A   282 A   283 A   284 A   285 A   286 A   287 A                  
 12.646  12.648  12.648  12.653  12.653  12.663  12.663  12.663
288 A   289 A   290 A   291 A   292 A   293 A   294 A   295 A                  
 13.120  13.120  13.344  13.745  16.928  16.928  16.935  16.935
296 A   297 A   298 A   299 A   300 A   301 A   302 A   303 A                  
 16.941  16.941  16.944  17.550  17.550  17.563  17.563  17.598
304 A   305 A   306 A   307 A   308 A   309 A   310 A   311 A                  
 17.598  17.623  23.817  27.686  27.686  27.739  27.739  27.748
312 A   313 A   314 A   315 A   316 A   317 A   318 A   319 A                  
 28.261  28.261  28.308  28.363  28.363  30.624  30.624  30.624
320 A   321 A   322 A   323 A   324 A   325 A   326 A   327 A                  
 30.624  30.624  30.624  30.624  30.624  30.624  30.624  30.624
328 A   329 A   330 A   331 A   332 A   333 A   334 A   335 A                  
 30.904  30.904  31.541  37.139  37.139  37.267  39.142  39.142
336 A   337 A   338 A   339 A   340 A   341 A   342 A   343 A                  
 39.143  39.143  39.145  39.145  39.146  39.146  39.146  40.225
344 A   345 A   346 A   347 A   348 A   349 A   350 A   351 A                  
 44.043  44.043  44.043  44.043  44.043  44.043  44.043  44.043
352 A   353 A   354 A   355 A   356 A   357 A   358 A   359 A                  
 44.043  44.932  45.088  45.088  46.188  46.188  46.197  46.197
360 A   361 A   362 A   363 A   364 A   365 A   366 A   367 A                  
 46.234  46.234  46.243  56.219  63.113  63.113  63.116  63.116
368 A   369 A   370 A   371 A   372 A   373 A   374 A   375 A                  
 63.119  63.119  63.129  68.482  68.482  68.569  68.569  68.633
376 A   377 A   378 A   379 A   380 A   381 A   382 A   383 A                  
 84.381  84.381  84.423  84.423  84.456  96.078 106.343 106.343
384 A   385 A   386 A   387 A   388 A   389 A   390 A   391 A                  
106.558 198.788
392 A   393 A                                                                  

 Beta MOs, Unrestricted
 -- Occupied --                  
-40.469  -2.790  -2.454  -1.509  -1.509  -1.509  -0.183
  1 A     2 A     3 A     4 A     5 A     6 A     7 A                          
 -- Virtual --                   
  0.004   0.007   0.009   0.009   0.016   0.018   0.018   0.018
  8 A     9 A    10 A    11 A    12 A    13 A    14 A    15 A                  
  0.028   0.028   0.029   0.044   0.050   0.050   0.054   0.065
 16 A    17 A    18 A    19 A    20 A    21 A    22 A    23 A                  
  0.065   0.074   0.074   0.078   0.080   0.080   0.083   0.084
 24 A    25 A    26 A    27 A    28 A    29 A    30 A    31 A                  
  0.084   0.092   0.095   0.095   0.105   0.114   0.114   0.136
 32 A    33 A    34 A    35 A    36 A    37 A    38 A    39 A                  
  0.149   0.149   0.176   0.176   0.180   0.180   0.180   0.184
 40 A    41 A    42 A    43 A    44 A    45 A    46 A    47 A                  
  0.184   0.184   0.184   0.187   0.193   0.193   0.203   0.203
 48 A    49 A    50 A    51 A    52 A    53 A    54 A    55 A                  
  0.210   0.211   0.211   0.225   0.225   0.225   0.230   0.250
 56 A    57 A    58 A    59 A    60 A    61 A    62 A    63 A                  
  0.250   0.253   0.253   0.300   0.328   0.328   0.339   0.343
 64 A    65 A    66 A    67 A    68 A    69 A    70 A    71 A                  
  0.343   0.366   0.366   0.376   0.376   0.383   0.388   0.388
 72 A    73 A    74 A    75 A    76 A    77 A    78 A    79 A                  
  0.391   0.391   0.406   0.406   0.412   0.412   0.419   0.419
 80 A    81 A    82 A    83 A    84 A    85 A    86 A    87 A                  
  0.419   0.435   0.435   0.441   0.441   0.441   0.447   0.447
 88 A    89 A    90 A    91 A    92 A    93 A    94 A    95 A                  
  0.450   0.461   0.461   0.464   0.464   0.479   0.479   0.488
 96 A    97 A    98 A    99 A   100 A   101 A   102 A   103 A                  
  0.488   0.502   0.505   0.505   0.559   0.579   0.614   0.614
104 A   105 A   106 A   107 A   108 A   109 A   110 A   111 A                  
  0.632   0.632   0.643   0.643   0.670   0.670   0.683   0.683
112 A   113 A   114 A   115 A   116 A   117 A   118 A   119 A                  
  0.687   0.746   0.746   0.757   0.761   0.761   0.789   0.789
120 A   121 A   122 A   123 A   124 A   125 A   126 A   127 A                  
  0.801   0.801   0.802   0.802   0.804   0.804   0.812   0.812
128 A   129 A   130 A   131 A   132 A   133 A   134 A   135 A                  
  0.819   0.819   0.821   0.831   0.831   0.848   0.853   0.853
136 A   137 A   138 A   139 A   140 A   141 A   142 A   143 A                  
  0.864   0.864   0.890   0.890   0.897   0.897   0.900   0.932
144 A   145 A   146 A   147 A   148 A   149 A   150 A   151 A                  
  0.932   0.936   0.936   0.955   0.955   0.962   0.965   0.965
152 A   153 A   154 A   155 A   156 A   157 A   158 A   159 A                  
  0.977   0.989   0.989   1.023   1.036   1.036   1.044   1.044
160 A   161 A   162 A   163 A   164 A   165 A   166 A   167 A                  
  1.084   1.084   1.114   1.114   1.123   1.123   1.132   1.158
168 A   169 A   170 A   171 A   172 A   173 A   174 A   175 A                  
  1.158   1.275   1.295   1.295   1.334   1.334   1.364   1.410
176 A   177 A   178 A   179 A   180 A   181 A   182 A   183 A                  
  1.410   1.609   1.609   1.614   1.614   1.629   1.629   1.632
184 A   185 A   186 A   187 A   188 A   189 A   190 A   191 A                  
  1.642   1.642   1.648   1.648   1.667   1.667   1.668   1.668
192 A   193 A   194 A   195 A   196 A   197 A   198 A   199 A                  
  1.672   1.672   1.677   1.737   1.737   1.740   1.743   1.743
200 A   201 A   202 A   203 A   204 A   205 A   206 A   207 A                  
  1.790   1.790   1.855   1.855   1.898   1.925   1.932   1.932
208 A   209 A   210 A   211 A   212 A   213 A   214 A   215 A                  
  1.962   1.962   2.030   2.030   2.057   2.057   2.090   2.090
216 A   217 A   218 A   219 A   220 A   221 A   222 A   223 A                  
  2.090   2.112   2.112   2.112   2.112   2.127   2.127   2.158
224 A   225 A   226 A   227 A   228 A   229 A   230 A   231 A                  
  2.158   2.185   2.217   2.217   2.284   2.284   2.300   2.300
232 A   233 A   234 A   235 A   236 A   237 A   238 A   239 A                  
  2.311   2.311   2.391   2.447   2.474   2.474   2.540   2.540
240 A   241 A   242 A   243 A   244 A   245 A   246 A   247 A                  
  2.713   2.713   2.830   2.867   2.917   2.917   3.775   3.775
248 A   249 A   250 A   251 A   252 A   253 A   254 A   255 A                  
  4.032   4.578   4.578   4.839   4.885   4.914   4.914   5.059
256 A   257 A   258 A   259 A   260 A   261 A   262 A   263 A                  
  5.068   5.068   6.128   6.128   6.150   6.150   6.215   6.215
264 A   265 A   266 A   267 A   268 A   269 A   270 A   271 A                  
  6.257   8.684   8.684   8.768   8.768   8.782  10.083  10.753
272 A   273 A   274 A   275 A   276 A   277 A   278 A   279 A                  
 10.753  11.226  11.747  11.747  11.879  11.879  11.917  12.646
280 A   281 A   282 A   283 A   284 A   285 A   286 A   287 A                  
 12.646  12.648  12.648  12.653  12.653  12.662  12.663  12.663
288 A   289 A   290 A   291 A   292 A   293 A   294 A   295 A                  
 13.122  13.122  13.346  13.744  16.928  16.928  16.935  16.935
296 A   297 A   298 A   299 A   300 A   301 A   302 A   303 A                  
 16.941  16.941  16.944  17.549  17.549  17.563  17.563  17.598
304 A   305 A   306 A   307 A   308 A   309 A   310 A   311 A                  
 17.598  17.622  23.820  27.687  27.687  27.741  27.741  27.749
312 A   313 A   314 A   315 A   316 A   317 A   318 A   319 A                  
 28.261  28.261  28.308  28.363  28.363  30.623  30.623  30.624
320 A   321 A   322 A   323 A   324 A   325 A   326 A   327 A                  
 30.624  30.624  30.624  30.624  30.624  30.624  30.624  30.624
328 A   329 A   330 A   331 A   332 A   333 A   334 A   335 A                  
 30.904  30.904  31.541  37.142  37.142  37.270  39.142  39.142
336 A   337 A   338 A   339 A   340 A   341 A   342 A   343 A                  
 39.142  39.142  39.144  39.144  39.145  39.145  39.146  40.223
344 A   345 A   346 A   347 A   348 A   349 A   350 A   351 A                  
 44.043  44.043  44.043  44.043  44.044  44.044  44.044  44.044
352 A   353 A   354 A   355 A   356 A   357 A   358 A   359 A                  
 44.044  44.933  45.087  45.087  46.188  46.188  46.197  46.197
360 A   361 A   362 A   363 A   364 A   365 A   366 A   367 A                  
 46.234  46.234  46.242  56.219  63.114  63.114  63.117  63.117
368 A   369 A   370 A   371 A   372 A   373 A   374 A   375 A                  
 63.121  63.121  63.130  68.482  68.482  68.569  68.569  68.633
376 A   377 A   378 A   379 A   380 A   381 A   382 A   383 A                  
 84.383  84.383  84.425  84.425  84.458  96.080 106.345 106.345
384 A   385 A   386 A   387 A   388 A   389 A   390 A   391 A                  
106.561 198.787
392 A   393 A                                                                  

 Occupation and symmetry of molecular orbitals

 Point group: C1 (1 irreducible representation).

                           A     All 
 -------------------------------------
 All molecular orbitals:
  - Alpha                  393   393 
  - Beta                   393   393 
 -------------------------------------
 Alpha orbitals:
  - Frozen occupied        0     0   
  - Active occupied        7     7   
  - Active virtual         386   386 
  - Frozen virtual         0     0   
 -------------------------------------
 Beta orbitals:
  - Frozen occupied        0     0   
  - Active occupied        7     7   
  - Active virtual         386   386 
  - Frozen virtual         0     0   
 -------------------------------------

 Import integrals:   CPU 0.00 s  wall 0.00 s

 Import integrals:   CPU 21740.77 s  wall 7136.10 s

 MP2 amplitudes:   CPU 7.90 s  wall 9.23 s

Running a double precision version
           CCSD T amplitudes will be solved using DIIS.

           Start     Size      MaxIter   EConv     TConv     
           3         7         100       1.00e-06  1.00e-04  
 ------------------------------------------------------------------------------
           Energy (a.u.)   Ediff      Tdiff       Comment
 ------------------------------------------------------------------------------
          -169.70440849                           
     1    -169.71006734   5.66e-03   3.30e-01     Step took 21.37.
     2    -169.71536873   5.30e-03   4.11e-02     
     3    -169.71688969   1.52e-03   2.39e-02     
     4    -169.71958644   2.70e-03   2.71e-02     Switched to DIIS steps.
     5    -169.72078736   1.20e-03   1.27e-02     
     6    -169.72173176   9.44e-04   1.43e-02     
     7    -169.72218266   4.51e-04   4.60e-03     
     8    -169.72227405   9.14e-05   1.97e-03     
     9    -169.72221705   5.70e-05   5.33e-04     
    10    -169.72225902   4.20e-05   5.17e-04     
    11    -169.72225317   5.84e-06   1.20e-04     
    12    -169.72225472   1.55e-06   5.59e-05     
    13    -169.72225468   4.06e-08   2.09e-05     
 ------------------------------------------------------------------------------
          -169.72225468                           CCSD T converged.

End of double precision

----------------------------------------
libpt (c) 2016-2019 Ilya Kaliman
Fast Coupled Cluster Triples Corrections
https://github.com/ilyak/libpt
----------------------------------------

 Starting (T) calculation...
 Using double precision libpt code
 Running unrestricted (T) code
 Using 1 integral batch

 (T) calculation completed in 2444.78 sec
 (T) energy is -0.0057791972

 SCF energy                 = -169.29489272
 MP2 energy                 = -169.70440849
 CCSD correlation energy    =   -0.42736196
 CCSD total energy          = -169.72225468
 CCSD(T) correlation energy =   -0.00577920
 CCSD(T) total energy       = -169.72803388

 CCSD  T1^2 = 0.1289  T2^2 = 0.1309  Leading amplitudes:

 Amplitude    Orbitals with energies
  0.1638       7 (A) A                   ->    8 (A) A                    
              -0.1847                          0.0030                     
 -0.1410       7 (A) B                   ->    8 (A) B                    
              -0.1827                          0.0044                     
  0.1258       7 (A) B                   ->    15 (A) B                   
              -0.1827                          0.0180                     
 -0.0962       7 (A) B                   ->    22 (A) B                   
              -0.1827                          0.0542                     

 Amplitude    Orbitals with energies
 -0.0509       7 (A) A       7 (A) B     ->    17 (A) A      17 (A) B     
              -0.1847       -0.1827            0.0292        0.0275       
  0.0509       7 (A) A       7 (A) B     ->    17 (A) B      17 (A) A     
              -0.1847       -0.1827            0.0275        0.0292       
  0.0509       7 (A) B       7 (A) A     ->    17 (A) A      17 (A) B     
              -0.1827       -0.1847            0.0292        0.0275       
 -0.0509       7 (A) B       7 (A) A     ->    17 (A) B      17 (A) A     
              -0.1827       -0.1847            0.0275        0.0292       
  0.0509       7 (A) A       7 (A) B     ->    16 (A) A      16 (A) B     
              -0.1847       -0.1827            0.0292        0.0275       
 -0.0509       7 (A) A       7 (A) B     ->    16 (A) B      16 (A) A     
              -0.1847       -0.1827            0.0275        0.0292       
 -0.0509       7 (A) B       7 (A) A     ->    16 (A) A      16 (A) B     
              -0.1827       -0.1847            0.0292        0.0275       
  0.0509       7 (A) B       7 (A) A     ->    16 (A) B      16 (A) A     
              -0.1827       -0.1847            0.0275        0.0292       

 CCSD calculation:   CPU 36413.37 s  wall 19154.09 s

 Total ccman2 time:   CPU 58204.15 s  wall 26321.85 s


 --------------------------------------------------------------

                    Orbital Energies (a.u.)
 --------------------------------------------------------------

 Alpha MOs
 -- Occupied --
-40.4671  -2.7854  -2.4649  -1.5084  -1.5076  -1.5076  -0.1847
 -- Virtual --
  0.0030   0.0073   0.0096   0.0096   0.0148   0.0171   0.0171   0.0177
  0.0292   0.0292   0.0300   0.0429   0.0457   0.0457   0.0514   0.0650
  0.0650   0.0790   0.0790   0.0793   0.0814   0.0814   0.0818   0.0836
  0.0836   0.0919   0.0919   0.0931   0.1083   0.1094   0.1094   0.1278
  0.1499   0.1499   0.1759   0.1759   0.1804   0.1804   0.1810   0.1871
  0.1881   0.1881   0.1925   0.1925   0.1935   0.1935   0.2009   0.2009
  0.2064   0.2064   0.2104   0.2220   0.2220   0.2265   0.2347   0.2492
  0.2492   0.2507   0.2507   0.2943   0.3286   0.3286   0.3409   0.3424
  0.3424   0.3660   0.3660   0.3795   0.3795   0.3796   0.3870   0.3870
  0.3929   0.3929   0.4096   0.4096   0.4167   0.4167   0.4213   0.4213
  0.4214   0.4331   0.4331   0.4405   0.4405   0.4420   0.4471   0.4471
  0.4478   0.4612   0.4612   0.4621   0.4621   0.4766   0.4766   0.4857
  0.4857   0.4996   0.4996   0.5044   0.5592   0.5773   0.6132   0.6132
  0.6340   0.6340   0.6419   0.6419   0.6709   0.6709   0.6829   0.6829
  0.6874   0.7486   0.7486   0.7566   0.7619   0.7619   0.7920   0.7920
  0.8000   0.8000   0.8053   0.8053   0.8077   0.8077   0.8144   0.8144
  0.8196   0.8196   0.8230   0.8324   0.8324   0.8501   0.8541   0.8541
  0.8644   0.8644   0.8880   0.8880   0.8990   0.8990   0.9019   0.9296
  0.9296   0.9326   0.9326   0.9524   0.9524   0.9588   0.9616   0.9616
  0.9776   0.9849   0.9849   1.0205   1.0357   1.0357   1.0446   1.0446
  1.0820   1.0820   1.1124   1.1124   1.1227   1.1227   1.1301   1.1559
  1.1559   1.2729   1.2956   1.2956   1.3329   1.3329   1.3629   1.4087
  1.4087   1.6132   1.6132   1.6176   1.6176   1.6324   1.6324   1.6334
  1.6449   1.6449   1.6467   1.6467   1.6699   1.6699   1.6710   1.6710
  1.6762   1.6762   1.6806   1.7397   1.7397   1.7423   1.7460   1.7460
  1.7917   1.7917   1.8541   1.8541   1.8965   1.9257   1.9330   1.9330
  1.9583   1.9583   2.0266   2.0266   2.0524   2.0524   2.0865   2.0865
  2.0883   2.1080   2.1080   2.1086   2.1086   2.1289   2.1289   2.1547
  2.1547   2.1836   2.2141   2.2141   2.2851   2.2851   2.2977   2.2977
  2.3103   2.3103   2.3907   2.4458   2.4723   2.4723   2.5395   2.5395
  2.7112   2.7112   2.8258   2.8669   2.9163   2.9163   3.7768   3.7768
  4.0325   4.5760   4.5760   4.8382   4.8871   4.9154   4.9154   5.0594
  5.0692   5.0692   6.1281   6.1281   6.1503   6.1503   6.2156   6.2156
  6.2576   8.6837   8.6837   8.7681   8.7681   8.7814  10.0797  10.7533
 10.7533  11.2254  11.7483  11.7483  11.8798  11.8798  11.9176  12.6460
 12.6460  12.6476  12.6476  12.6526  12.6526  12.6625  12.6629  12.6629
 13.1196  13.1196  13.3437  13.7452  16.9277  16.9277  16.9350  16.9350
 16.9413  16.9413  16.9442  17.5496  17.5496  17.5631  17.5631  17.5982
 17.5982  17.6227  23.8171  27.6858  27.6858  27.7393  27.7393  27.7479
 28.2614  28.2614  28.3082  28.3635  28.3635  30.6236  30.6236  30.6236
 30.6236  30.6237  30.6237  30.6238  30.6238  30.6239  30.6239  30.6239
 30.9041  30.9041  31.5407  37.1394  37.1394  37.2674  39.1420  39.1420
 39.1427  39.1427  39.1448  39.1448  39.1457  39.1457  39.1462  40.2246
 44.0429  44.0429  44.0430  44.0430  44.0433  44.0433  44.0433  44.0433
 44.0433  44.9317  45.0875  45.0875  46.1883  46.1883  46.1972  46.1972
 46.2343  46.2343  46.2427  56.2189  63.1130  63.1130  63.1163  63.1163
 63.1195  63.1195  63.1294  68.4821  68.4821  68.5695  68.5695  68.6333
 84.3810  84.3810  84.4231  84.4231  84.4561  96.0781 106.3434 106.3434
106.5585 198.7881

 Beta MOs
 -- Occupied --
-40.4688  -2.7896  -2.4544  -1.5089  -1.5088  -1.5088  -0.1827
 -- Virtual --
  0.0044   0.0067   0.0094   0.0094   0.0161   0.0179   0.0179   0.0180
  0.0275   0.0275   0.0288   0.0438   0.0500   0.0500   0.0542   0.0646
  0.0646   0.0739   0.0739   0.0781   0.0805   0.0805   0.0825   0.0839
  0.0839   0.0916   0.0950   0.0950   0.1053   0.1143   0.1143   0.1362
  0.1493   0.1493   0.1759   0.1759   0.1800   0.1801   0.1801   0.1842
  0.1842   0.1843   0.1843   0.1872   0.1932   0.1932   0.2030   0.2030
  0.2103   0.2113   0.2113   0.2246   0.2246   0.2252   0.2299   0.2501
  0.2501   0.2529   0.2529   0.3000   0.3280   0.3280   0.3386   0.3432
  0.3432   0.3656   0.3656   0.3764   0.3764   0.3827   0.3877   0.3877
  0.3910   0.3910   0.4057   0.4057   0.4122   0.4122   0.4188   0.4188
  0.4189   0.4349   0.4349   0.4411   0.4411   0.4412   0.4466   0.4466
  0.4498   0.4612   0.4612   0.4641   0.4641   0.4786   0.4786   0.4879
  0.4879   0.5021   0.5050   0.5050   0.5587   0.5791   0.6141   0.6141
  0.6324   0.6324   0.6426   0.6426   0.6698   0.6698   0.6828   0.6828
  0.6866   0.7464   0.7464   0.7571   0.7607   0.7607   0.7890   0.7890
  0.8008   0.8008   0.8020   0.8020   0.8040   0.8040   0.8123   0.8123
  0.8187   0.8187   0.8208   0.8310   0.8310   0.8485   0.8526   0.8526
  0.8642   0.8642   0.8899   0.8899   0.8972   0.8972   0.9002   0.9325
  0.9325   0.9357   0.9357   0.9553   0.9553   0.9615   0.9648   0.9648
  0.9768   0.9892   0.9892   1.0228   1.0364   1.0364   1.0438   1.0438
  1.0842   1.0842   1.1136   1.1136   1.1235   1.1235   1.1323   1.1580
  1.1580   1.2748   1.2945   1.2945   1.3337   1.3337   1.3638   1.4103
  1.4103   1.6094   1.6094   1.6144   1.6144   1.6291   1.6291   1.6317
  1.6420   1.6420   1.6475   1.6475   1.6673   1.6673   1.6681   1.6681
  1.6724   1.6724   1.6766   1.7370   1.7370   1.7400   1.7432   1.7432
  1.7900   1.7900   1.8551   1.8551   1.8979   1.9245   1.9317   1.9317
  1.9624   1.9624   2.0297   2.0297   2.0565   2.0565   2.0897   2.0897
  2.0902   2.1115   2.1115   2.1121   2.1121   2.1274   2.1274   2.1576
  2.1576   2.1851   2.2167   2.2167   2.2844   2.2844   2.2998   2.2998
  2.3114   2.3114   2.3906   2.4472   2.4739   2.4739   2.5404   2.5404
  2.7131   2.7131   2.8302   2.8674   2.9173   2.9173   3.7755   3.7755
  4.0323   4.5784   4.5784   4.8393   4.8851   4.9144   4.9144   5.0586
  5.0683   5.0683   6.1277   6.1277   6.1500   6.1500   6.2153   6.2153
  6.2573   8.6843   8.6843   8.7685   8.7685   8.7818  10.0833  10.7525
 10.7525  11.2257  11.7474  11.7474  11.8790  11.8790  11.9170  12.6460
 12.6460  12.6476  12.6476  12.6526  12.6526  12.6625  12.6628  12.6628
 13.1224  13.1224  13.3463  13.7438  16.9278  16.9278  16.9351  16.9351
 16.9413  16.9413  16.9442  17.5491  17.5491  17.5626  17.5626  17.5977
 17.5977  17.6222  23.8195  27.6872  27.6872  27.7407  27.7407  27.7492
 28.2609  28.2609  28.3078  28.3632  28.3632  30.6235  30.6235  30.6235
 30.6235  30.6236  30.6236  30.6237  30.6237  30.6238  30.6238  30.6238
 30.9036  30.9036  31.5405  37.1421  37.1421  37.2700  39.1416  39.1416
 39.1423  39.1423  39.1445  39.1445  39.1453  39.1453  39.1459  40.2234
 44.0432  44.0432  44.0434  44.0434  44.0436  44.0436  44.0436  44.0437
 44.0437  44.9328  45.0865  45.0865  46.1879  46.1879  46.1969  46.1969
 46.2340  46.2340  46.2424  56.2192  63.1140  63.1140  63.1174  63.1174
 63.1205  63.1205  63.1305  68.4820  68.4820  68.5695  68.5695  68.6333
 84.3826  84.3826  84.4248  84.4248  84.4577  96.0802 106.3454 106.3454
106.5605 198.7869
 --------------------------------------------------------------

          Ground-State Mulliken Net Atomic Charges

     Atom                 Charge (a.u.)    Spin (a.u.)
  --------------------------------------------------------
      1 Li                   -2.468098       1.023893
      2 Na                    2.468098      -1.023893
  --------------------------------------------------------
  Sum of atomic charges =    -0.000000
  Sum of spin   charges =    -0.000000

 -----------------------------------------------------------------
                    Cartesian Multipole Moments
 -----------------------------------------------------------------
    Charge (ESU x 10^10)
                -0.0000
    Dipole Moment (Debye)
         X      -0.0000      Y      -0.0000      Z       0.7862
       Tot       0.7862
    Quadrupole Moments (Debye-Ang)
        XX     -20.1343     XY       0.0000     YY     -20.1343
        XZ       0.0000     YZ       0.0000     ZZ      -8.2382
    Octopole Moments (Debye-Ang^2)
       XXX       0.0000    XXY       0.0000    XYY       0.0000
       YYY      -0.0000    XXZ     -32.1354    XYZ       0.0000
       YYZ     -32.1354    XZZ       0.0000    YZZ       0.0000
       ZZZ     -48.8299
    Hexadecapole Moments (Debye-Ang^3)
      XXXX     -97.4589   XXXY       0.0000   XXYY     -32.4863
      XYYY       0.0000   YYYY     -97.4589   XXXZ       0.0000
      XXYZ       0.0000   XYYZ       0.0000   YYYZ       0.0000
      XXZZ    -110.3376   XYZZ       0.0000   YYZZ    -110.3376
      XZZZ       0.0000   YZZZ       0.0000   ZZZZ    -405.1286
 -----------------------------------------------------------------
Archival summary:
1\1\n0041.mhg0\SP\ProcedureUnspecified\BasisUnspecified\a1i1\yhljason\TueAug2508:14:342020TueAug2508:14:342020\0\\#,ProcedureUnspecified,BasisUnspecified,\\0,1\Li\Na,1,2.889\\HF=-169.294893\\@

 Total job time:  47610.31s(wall), 225059.54s(cpu) 
 Tue Aug 25 08:14:34 2020

        *************************************************************
        *                                                           *
        *  Thank you very much for using Q-Chem.  Have a nice day.  *
        *                                                           *
        *************************************************************


 
User input: 2 of 7 
 
                  Welcome to Q-Chem
     A Quantum Leap Into The Future Of Chemistry


 Q-Chem 5.3 (devel), Q-Chem, Inc., Pleasanton, CA (2020)

 Yihan Shao,  Zhengting Gan,  E. Epifanovsky,  A. T. B. Gilbert,  M. Wormit,  
 J. Kussmann,  A. W. Lange,  A. Behn,  Jia Deng,  Xintian Feng,  D. Ghosh,  
 M. Goldey,  P. R. Horn,  L. D. Jacobson,  I. Kaliman,  T. Kus,  A. Landau,  
 Jie Liu,  E. I. Proynov,  R. M. Richard,  R. P. Steele,  E. J. Sundstrom,  
 H. L. Woodcock III,  P. M. Zimmerman,  D. Zuev,  B. Alam,  B. Albrecht,  
 E. Alguire,  S. A. Baeppler,  D. Barton,  Z. Benda,  Y. A. Bernard,  
 E. J. Berquist,  K. B. Bravaya,  H. Burton,  K. Carter-Fenk,  D. Casanova,  
 Chun-Min Chang,  Yunqing Chen,  A. Chien,  K. D. Closser,  M. P. Coons,  
 S. Coriani,  S. Dasgupta,  A. L. Dempwolff,  M. Diedenhofen,  Hainam Do,  
 R. G. Edgar,  Po-Tung Fang,  S. Faraji,  S. Fatehi,  Qingguo Feng,  
 J. Fosso-Tande,  J. Gayvert,  Qinghui Ge,  A. Ghysels,  G. Gidofalvi,  
 J. Gomes,  J. Gonthier,  A. Gunina,  D. Hait,  M. W. D. Hanson-Heine,  
 P. H. P. Harbach,  A. W. Hauser,  M. F. Herbst,  J. E. Herr,  
 E. G. Hohenstein,  Z. C. Holden,  Kerwin Hui,  B. C. Huynh,  T.-C. Jagau,  
 Hyunjun Ji,  B. Kaduk,  K. Khistyaev,  Jaehoon Kim,  P. Klunzinger,  K. Koh,  
 D. Kosenkov,  L. Koulias,  T. Kowalczyk,  C. M. Krauter,  A. Kunitsa,  
 Ka Un Lao,  A. Laurent,  K. V. Lawler,  Joonho Lee,  D. Lefrancois,  
 S. Lehtola,  D. S. Levine,  Yi-Pei Li,  You-Sheng Lin,  Fenglai Liu,  
 Kuan-Yu Liu,  E. Livshits,  M. Loipersberger,  A. Luenser,  P. Manohar,  
 E. Mansoor,  S. F. Manzer,  Shan-Ping Mao,  Yuezhi Mao,  N. Mardirossian,  
 A. V. Marenich,  T. Markovich,  L. A. Martinez-Martinez,  S. A. Maurer,  
 N. J. Mayhall,  S. C. McKenzie,  J.-M. Mewes,  P. Morgante,  A. F. Morrison,  
 J. W. Mullinax,  K. Nanda,  T. S. Nguyen-Beck,  R. Olivares-Amaya,  
 K. J. Oosterbaan,  J. A. Parkhill,  S. K. Paul,  F. Pavosevic,  Zheng Pei,  
 T. M. Perrine,  F. Plasser,  P. Pokhilko,  S. Prager,  A. Prociuk,  
 E. Ramos,  B. Rana,  D. R. Rehn,  F. Rob,  M. Scheurer,  M. Schneider,  
 N. Sergueev,  S. M. Sharada,  S. Sharma,  D. W. Small,  T. Stauch,  
 C. J. Stein,  T. Stein,  Yu-Chuan Su,  S. P. Veccham,  Zhen Tao,  
 A. J. W. Thom,  A. Tkatchenko,  T. Tsuchimochi,  N. M. Tubman,  L. Vogt,  
 M. L. Vidal,  O. Vydrov,  M. A. Watson,  J. Wenzel,  M. de Wergifosse,  
 T. A. Wesolowski,  A. White,  J. Witte,  A. Yamada,  Jun Yang,  K. Yao,  
 S. Yeganeh,  S. R. Yost,  Zhi-Qiang You,  A. Zech,  Igor Ying Zhang,  
 Xing Zhang,  Yan Zhao,  Ying Zhu,  B. R. Brooks,  G. K. L. Chan,  
 C. J. Cramer,  M. S. Gordon,  W. J. Hehre,  A. Klamt,  M. W. Schmidt,  
 C. D. Sherrill,  D. G. Truhlar,  A. Aspuru-Guzik,  R. Baer,  A. T. Bell,  
 N. A. Besley,  Jeng-Da Chai,  A. E. DePrince, III,  R. A. DiStasio Jr.,  
 A. Dreuw,  B. D. Dunietz,  T. R. Furlani,  Chao-Ping Hsu,  Yousung Jung,  
 Jing Kong,  D. S. Lambrecht,  WanZhen Liang,  C. Ochsenfeld,  
 V. A. Rassolov,  L. V. Slipchenko,  J. E. Subotnik,  T. Van Voorhis,  
 J. M. Herbert,  A. I. Krylov,  P. M. W. Gill,  M. Head-Gordon

 Contributors to earlier versions of Q-Chem not listed above: 
 R. D. Adamson,  B. Austin,  J. Baker,  G. J. O. Beran,  K. Brandhorst,  
 S. T. Brown,  E. F. C. Byrd,  A. K. Chakraborty,  C.-L. Cheng,  
 Siu Hung Chien,  D. M. Chipman,  D. L. Crittenden,  H. Dachsel,  
 R. J. Doerksen,  A. D. Dutoi,  L. Fusti-Molnar,  W. A. Goddard III,  
 A. Golubeva-Zadorozhnaya,  S. R. Gwaltney,  G. Hawkins,  A. Heyden,  
 S. Hirata,  G. Kedziora,  F. J. Keil,  C. Kelley,  Jihan Kim,  R. A. King,  
 R. Z. Khaliullin,  P. P. Korambath,  W. Kurlancheek,  A. M. Lee,  M. S. Lee,  
 S. V. Levchenko,  Ching Yeh Lin,  D. Liotard,  R. C. Lochan,  I. Lotan,  
 P. E. Maslen,  N. Nair,  D. P. O'Neill,  D. Neuhauser,  E. Neuscamman,  
 C. M. Oana,  R. Olson,  B. Peters,  R. Peverati,  P. A. Pieniazek,  
 Y. M. Rhee,  J. Ritchie,  M. A. Rohrdanz,  E. Rosta,  N. J. Russ,  
 H. F. Schaefer III,  N. E. Schultz,  N. Shenvi,  A. C. Simmonett,  A. Sodt,  
 D. Stuck,  K. S. Thanthiriwatte,  V. Vanovschi,  Tao Wang,  A. Warshel,  
 C. F. Williams,  Q. Wu,  X. Xu,  W. Zhang

 Please cite Q-Chem as follows:
 Y. Shao et al., Mol. Phys. 113, 184-215 (2015)
 DOI: 10.1080/00268976.2014.952696

 Q-Chem 5.3.0 for Intel X86 EM64T Linux

 Parts of Q-Chem use Armadillo 9.800.1 (Horizon Scraper).
 http://arma.sourceforge.net/

 Q-Chem begins on Tue Aug 25 08:14:34 2020  

n0041.mhg0
Host: 0

     Scratch files written to /local/scratch/users/yhljason/NaLi_ccsdT_aug-cc-pcV5Z.inp20200824154414//
Processing $rem in /clusterfs/mhg/diptarka/qchem_transmom//config/preferences:
Processing $rem in /global/home/users/yhljason/.qchemrc:
The previous job contains 0 fragments, simply inherited here

Checking the input file for inconsistencies... 	...done.

--------------------------------------------------------------
User input:
--------------------------------------------------------------
$molecule
read
$end

$rem

jobtype sp
method CCSD(T)
xc_grid 000099000590
basis gen
use_libpt true
max_scf_cycles 200
thresh 14
scf_convergence 8
mem_total 128000
cc_memory 96000
cc_backend xm
mem_static 1500
symmetry false
sym_ignore true
scf_guess read
unrestricted true
scf_algorithm gdm
n_frozen_core 0
$end

$multipole_field
XX 0.0001
$end
$basis
****
Li     0
S   14   1.00
  29493.0000000              1.8000000e-05
   4417.1010000              1.4100000e-04
   1005.2230000              7.3900000e-04
    284.7009000              3.1070000e-03
     92.8654300              1.1135000e-02
     33.5117900              3.4670000e-02
     13.0418000              9.2171000e-02
      5.3575360              1.9957600e-01
      2.2793380              3.2883600e-01
      0.9939900              3.4597500e-01
      0.4334710              1.4276100e-01
      0.0955660              5.3190000e-03
      0.0446570             -2.1010000e-03
      0.0206330              8.1500000e-04
S   14   1.00
  29493.0000000             -3.0000000e-06
   4417.1010000             -2.2000000e-05
   1005.2230000             -1.1500000e-04
    284.7009000             -4.8700000e-04
     92.8654300             -1.7460000e-03
     33.5117900             -5.5200000e-03
     13.0418000             -1.4928000e-02
      5.3575360             -3.4206000e-02
      2.2793380             -6.2155000e-02
      0.9939900             -9.5902000e-02
      0.4334710             -1.0397200e-01
      0.0955660              3.0715100e-01
      0.0446570              5.7902800e-01
      0.0206330              2.2323100e-01
S   1   1.00
      0.4334710              1.0000000e+00
S   1   1.00
      0.0955660              1.0000000e+00
S   1   1.00
      0.0446570              1.0000000e+00
S   1   1.00
      0.0206330              1.0000000e+00
P   8   1.00
     19.6635000              5.4000000e-04
      4.6231100              3.8650000e-03
      1.4137800              1.5171000e-02
      0.4737210              4.9204000e-02
      0.1761510              1.5466100e-01
      0.0726750              3.6009500e-01
      0.0321410              4.4185200e-01
      0.0145560              1.5600000e-01
P   1   1.00
      0.1761510              1.0000000e+00
P   1   1.00
      0.0726750              1.0000000e+00
P   1   1.00
      0.0321410              1.0000000e+00
P   1   1.00
      0.0145560              1.0000000e+00
D   1   1.00
      0.5310000              1.0000000e+00
D   1   1.00
      0.2481000              1.0000000e+00
D   1   1.00
      0.1159000              1.0000000e+00
D   1   1.00
      0.0542000              1.0000000e+00
F   1   1.00
      0.2920000              1.0000000e+00
F   1   1.00
      0.1641000              1.0000000e+00
F   1   1.00
      0.0922000              1.0000000e+00
G   1   1.00
      0.2971000              1.0000000e+00
G   1   1.00
      0.1500000              1.0000000e+00
H   1   1.00
      0.2949000              1.0000000e+00
S   1   1.00
     27.8558000              1.0000000
S   1   1.00
     12.5082000              1.0000000
S   1   1.00
      5.6166000              1.0000000
S   1   1.00
      2.5221000              1.0000000
P   1   1.00
     29.2095000              1.0000000
P   1   1.00
     11.1763000              1.0000000
P   1   1.00
      4.2763000              1.0000000
P   1   1.00
      1.6362000              1.0000000
D   1   1.00
     19.8455000              1.0000000
D   1   1.00
      7.1492000              1.0000000
D   1   1.00
      2.5754000              1.0000000
F   1   1.00
     13.2502000              1.0000000
F   1   1.00
      4.1991000              1.0000000
G   1   1.00
      8.4093000              1.0000000
S   1   1.00
      0.0061000              1.0000000
P   1   1.00
      0.0065000              1.0000000
D   1   1.00
      0.0235000              1.0000000
F   1   1.00
      0.0448000              1.0000000
G   1   1.00
      0.0724000              1.0000000
H   1   1.00
      0.1274000              1.0000000
****
Na     0
S 20 1.00
   2.185572E+06     2.000000E-06
   3.272284E+05     1.800000E-05
   7.446684E+04     9.500000E-05
   2.109315E+04     4.010000E-04
   6.881898E+03     1.459000E-03
   2.484696E+03     4.746000E-03
   9.692232E+02     1.403100E-02
   4.020643E+02     3.773300E-02
   1.753545E+02     9.070200E-02
   7.965199E+01     1.864660E-01
   3.738672E+01     3.018370E-01
   1.800194E+01     3.238300E-01
   8.724371E+00     1.687000E-01
   3.857715E+00     2.308300E-02
   1.815686E+00    -1.470000E-04
   8.382540E-01     1.099000E-03
   3.819350E-01    -1.010000E-04
   7.167900E-02     6.100000E-05
   3.391600E-02    -5.300000E-05
   1.652500E-02     1.800000E-05
S 20 1.00
   2.185572E+06    -1.000000E-06
   3.272284E+05    -4.000000E-06
   7.446684E+04    -2.300000E-05
   2.109315E+04    -9.800000E-05
   6.881898E+03    -3.570000E-04
   2.484696E+03    -1.165000E-03
   9.692232E+02    -3.464000E-03
   4.020643E+02    -9.495000E-03
   1.753545E+02    -2.358700E-02
   7.965199E+01    -5.239400E-02
   3.738672E+01    -9.802800E-02
   1.800194E+01    -1.436730E-01
   8.724371E+00    -1.022980E-01
   3.857715E+00     1.380290E-01
   1.815686E+00     4.290060E-01
   8.382540E-01     4.478130E-01
   3.819350E-01     1.445430E-01
   7.167900E-02     2.617000E-03
   3.391600E-02    -1.192000E-03
   1.652500E-02     4.400000E-04
S 1 1.00
   8.724371E+00     1.000000E+00
S 1 1.00
   3.857715E+00     1.000000E+00
S 1 1.00
   1.815686E+00     1.000000E+00
S 1 1.00
   8.382540E-01     1.000000E+00
S 1 1.00
   3.819350E-01     1.000000E+00
S 1 1.00
   7.167900E-02     1.000000E+00
S 1 1.00
   3.391600E-02     1.000000E+00
S 1 1.00
   1.652500E-02     1.000000E+00
P 14 1.00
   1.119578E+03     1.620000E-04
   2.653239E+02     1.408000E-03
   8.599553E+01     7.586000E-03
   3.253759E+01     2.961500E-02
   1.351565E+01     8.847700E-02
   5.966856E+00     1.955190E-01
   2.700045E+00     3.066210E-01
   1.218512E+00     3.412420E-01
   5.421870E-01     2.296900E-01
   2.274130E-01     5.492100E-02
   1.330400E-01    -3.441000E-03
   5.757700E-02     2.340000E-03
   2.597100E-02    -6.620000E-04
   1.190100E-02     1.990000E-04
P 14 1.00
   1.119578E+03    -1.600000E-05
   2.653239E+02    -1.400000E-04
   8.599553E+01    -7.540000E-04
   3.253759E+01    -2.968000E-03
   1.351565E+01    -8.919000E-03
   5.966856E+00    -2.002900E-02
   2.700045E+00    -3.138000E-02
   1.218512E+00    -3.648900E-02
   5.421870E-01    -2.962500E-02
   2.274130E-01    -1.014600E-02
   1.330400E-01     8.212800E-02
   5.757700E-02     3.345530E-01
   2.597100E-02     5.081420E-01
   1.190100E-02     1.966360E-01
P 1 1.00
   1.330400E-01     1.000000E+00
P 1 1.00
   5.757700E-02     1.000000E+00
P 1 1.00
   2.597100E-02     1.000000E+00
P 1 1.00
   1.190100E-02     1.000000E+00
P 1 1.00
   1.096200E+01     1.000000E+00
P 1 1.00
   4.989600E+00     1.000000E+00
P 1 1.00
   2.271200E+00     1.000000E+00
P 1 1.00
   1.033800E+00     1.000000E+00
D 1 1.00
   4.898000E-01     1.000000E+00
D 1 1.00
   2.283000E-01     1.000000E+00
D 1 1.00
   1.064000E-01     1.000000E+00
D 1 1.00
   4.960000E-02     1.000000E+00
D 1 1.00
   1.647900E+01     1.000000E+00
D 1 1.00
   7.331500E+00     1.000000E+00
D 1 1.00
   3.261800E+00     1.000000E+00
D 1 1.00
   1.451200E+00     1.000000E+00
F 1 1.00
   2.493000E-01     1.000000E+00
F 1 1.00
   1.357000E-01     1.000000E+00
F 1 1.00
   7.390000E-02     1.000000E+00
F 1 1.00
   9.722700E+00     1.000000E+00
F 1 1.00
   3.988100E+00     1.000000E+00
F 1 1.00
   1.635900E+00     1.000000E+00
G 1 1.00
   2.318000E-01     1.000000E+00
G 1 1.00
   1.222000E-01     1.000000E+00
G 1 1.00
   7.225000E+00     1.000000E+00
G 1 1.00
   2.647100E+00     1.000000E+00
H 1 1.00
   2.240000E-01     1.000000E+00
H 1 1.00
   5.134600E+00     1.000000E+00
S   1   1.00
      0.0051000              1.0000000
P   1   1.00
      0.0055000              1.0000000
D   1   1.00
      0.0229000              1.0000000
F   1   1.00
      0.0414000              1.0000000
G   1   1.00
      0.0732000              1.0000000
H   1   1.00
      0.1048000              1.0000000
****
$end


--------------------------------------------------------------
 ----------------------------------------------------------------
             Standard Nuclear Orientation (Angstroms)
    I     Atom           X                Y                Z
 ----------------------------------------------------------------
    1      Li      0.0000000000     0.0000000000     0.0000000000
    2      Na      0.0000000000     0.0000000000     2.8890000000
 ----------------------------------------------------------------
 Nuclear Repulsion Energy =           6.04459950 hartrees
 There are        7 alpha and        7 beta electrons
 Requested basis set is non-standard
 There are 87 shells and 397 basis functions
 Total memory of 128000 MB is distributed as follows: 
   MEM_STATIC is set to 1500 MB
   QALLOC/CCMAN JOB total memory use is  126500 MB
 Warning: actual memory use might exceed 128000 MB

 Total QAlloc Memory Limit 128000 MB
 Mega-Array Size      1467 MB
 MEM_STATIC part      1500 MB

                       Distance Matrix (Angstroms)
             Li(  1)
   Na(  2)  2.889000

 Applying Cartesian multipole field
    Component          Value
    ---------          -----
     (2,0,0)        1.00000E-04
 A cutoff of  1.0D-14 yielded   3625 shell pairs
 There are     76127 function pairs (    150957 Cartesian)
 Smallest overlap matrix eigenvalue = 3.01E-07
 Linear dependence detected in AO basis
 Tighter screening thresholds may be required for diffuse basis sets
 Use S2THRESH > 14 and THRESH = 14 in case of SCF convergence issues
 Number of orthogonalized atomic orbitals = 393
 Maximum deviation from orthogonality = 1.734E-10
 Guess MOs from SCF MO coefficient file

 -----------------------------------------------------------------------
  General SCF calculation program by
  Eric Jon Sundstrom, Paul Horn, Yuezhi Mao, Dmitri Zuev, Alec White,
  David Stuck, Shaama M.S., Shane Yost, Joonho Lee, David Small,
  Daniel Levine, Susi Lehtola, Hugh Burton, Evgeny Epifanovsky,
  Bang C. Huynh
 -----------------------------------------------------------------------
 Hartree-Fock
 A unrestricted SCF calculation will be
 performed using GDM
 SCF converges when RMS gradient is below 1.0e-08
 ---------------------------------------
  Cycle       Energy        RMS Gradient
 ---------------------------------------
    1    -169.2948927141      7.46e-10  Convergence criterion met
 ---------------------------------------
 SCF time:   CPU 1657.75s  wall 212.00s 
<S^2> =          0.323911525
 SCF   energy in the final basis set =     -169.2948927141
 Total energy in the final basis set =     -169.2948927141

 Q-Chem warning in module /clusterfs/mhg/diptarka/qchem_transmom/libsym/oriorb.F, line  198:

 OriOrb: Failure to resolve orbital degeneracies.


 Q-Chem warning in module /clusterfs/mhg/diptarka/qchem_transmom/libsym/oriorb.F, line  198:

 OriOrb: Failure to resolve orbital degeneracies.



 ------------------------------------------------------------------------------

   CCMAN2: suite of methods based on coupled cluster
           and equation of motion theories.

   Components:
   * libvmm-1.3-trunk
     by Evgeny Epifanovsky, Ilya Kaliman.
   * libtensor-2.5-trunk
     by Evgeny Epifanovsky, Michael Wormit, Dmitry Zuev, Sam Manzer, 
        Ilya Kaliman.
   * libcc-2.5-trunk
     by Evgeny Epifanovsky, Arik Landau, Tomasz Kus, Kirill Khistyaev, 
        Dmitry Zuev, Prashant Manohar, Xintian Feng, Anna Krylov, 
        Matthew Goldey, Alec White, Thomas Jagau, Kaushik Nanda, 
        Anastasia Gunina, Alexander Kunitsa, Joonho Lee.

   CCMAN original authors:
   Anna I. Krylov, C. David Sherrill, Steven R. Gwaltney,
   Edward F. C. Byrd (2000)
   Sergey V. Levchenko, Lyudmila V. Slipchenko, Tao Wang,
   Ana-Maria C. Cristian (2003)
   Piotr A. Pieniazek, C. Melania Oana, Evgeny Epifanovsky (2007)
   Prashant Manohar (2009)

 ------------------------------------------------------------------------------


 Calculation will run on 8 cores using libxm for tensor contractions

 ------------------------------------------------------------------------------
Libxm Tensor Library
Copyright (c) 2014-2018 Ilya Kaliman
https://github.com/ilyak/libxm
Reference: https://dx.doi.org/10.1002/jcc.24713
 ------------------------------------------------------------------------------


 Alpha MOs, Unrestricted
 -- Occupied --                  
-40.467  -2.785  -2.465  -1.508  -1.508  -1.508  -0.185
  1 A     2 A     3 A     4 A     5 A     6 A     7 A                          
 -- Virtual --                   
  0.003   0.007   0.010   0.010   0.015   0.017   0.017   0.018
  8 A     9 A    10 A    11 A    12 A    13 A    14 A    15 A                  
  0.029   0.029   0.030   0.043   0.046   0.046   0.051   0.065
 16 A    17 A    18 A    19 A    20 A    21 A    22 A    23 A                  
  0.065   0.079   0.079   0.079   0.081   0.081   0.082   0.084
 24 A    25 A    26 A    27 A    28 A    29 A    30 A    31 A                  
  0.084   0.092   0.092   0.093   0.108   0.109   0.109   0.128
 32 A    33 A    34 A    35 A    36 A    37 A    38 A    39 A                  
  0.150   0.150   0.176   0.176   0.180   0.180   0.181   0.187
 40 A    41 A    42 A    43 A    44 A    45 A    46 A    47 A                  
  0.188   0.188   0.192   0.192   0.193   0.193   0.201   0.201
 48 A    49 A    50 A    51 A    52 A    53 A    54 A    55 A                  
  0.206   0.206   0.210   0.222   0.222   0.227   0.235   0.249
 56 A    57 A    58 A    59 A    60 A    61 A    62 A    63 A                  
  0.249   0.251   0.251   0.294   0.329   0.329   0.341   0.342
 64 A    65 A    66 A    67 A    68 A    69 A    70 A    71 A                  
  0.342   0.366   0.366   0.380   0.380   0.380   0.387   0.387
 72 A    73 A    74 A    75 A    76 A    77 A    78 A    79 A                  
  0.393   0.393   0.410   0.410   0.417   0.417   0.421   0.421
 80 A    81 A    82 A    83 A    84 A    85 A    86 A    87 A                  
  0.421   0.433   0.433   0.441   0.441   0.442   0.447   0.447
 88 A    89 A    90 A    91 A    92 A    93 A    94 A    95 A                  
  0.448   0.461   0.461   0.462   0.462   0.477   0.477   0.486
 96 A    97 A    98 A    99 A   100 A   101 A   102 A   103 A                  
  0.486   0.500   0.500   0.504   0.559   0.577   0.613   0.613
104 A   105 A   106 A   107 A   108 A   109 A   110 A   111 A                  
  0.634   0.634   0.642   0.642   0.671   0.671   0.683   0.683
112 A   113 A   114 A   115 A   116 A   117 A   118 A   119 A                  
  0.687   0.749   0.749   0.757   0.762   0.762   0.792   0.792
120 A   121 A   122 A   123 A   124 A   125 A   126 A   127 A                  
  0.800   0.800   0.805   0.805   0.808   0.808   0.814   0.814
128 A   129 A   130 A   131 A   132 A   133 A   134 A   135 A                  
  0.820   0.820   0.823   0.832   0.832   0.850   0.854   0.854
136 A   137 A   138 A   139 A   140 A   141 A   142 A   143 A                  
  0.864   0.864   0.888   0.888   0.899   0.899   0.902   0.930
144 A   145 A   146 A   147 A   148 A   149 A   150 A   151 A                  
  0.930   0.933   0.933   0.952   0.952   0.959   0.962   0.962
152 A   153 A   154 A   155 A   156 A   157 A   158 A   159 A                  
  0.978   0.985   0.985   1.021   1.036   1.036   1.045   1.045
160 A   161 A   162 A   163 A   164 A   165 A   166 A   167 A                  
  1.082   1.082   1.112   1.112   1.123   1.123   1.130   1.156
168 A   169 A   170 A   171 A   172 A   173 A   174 A   175 A                  
  1.156   1.273   1.296   1.296   1.333   1.333   1.363   1.409
176 A   177 A   178 A   179 A   180 A   181 A   182 A   183 A                  
  1.409   1.613   1.613   1.618   1.618   1.632   1.632   1.633
184 A   185 A   186 A   187 A   188 A   189 A   190 A   191 A                  
  1.645   1.645   1.647   1.647   1.670   1.670   1.671   1.671
192 A   193 A   194 A   195 A   196 A   197 A   198 A   199 A                  
  1.676   1.676   1.681   1.740   1.740   1.742   1.746   1.746
200 A   201 A   202 A   203 A   204 A   205 A   206 A   207 A                  
  1.792   1.792   1.854   1.854   1.896   1.926   1.933   1.933
208 A   209 A   210 A   211 A   212 A   213 A   214 A   215 A                  
  1.958   1.958   2.027   2.027   2.052   2.052   2.087   2.087
216 A   217 A   218 A   219 A   220 A   221 A   222 A   223 A                  
  2.088   2.108   2.108   2.109   2.109   2.129   2.129   2.155
224 A   225 A   226 A   227 A   228 A   229 A   230 A   231 A                  
  2.155   2.184   2.214   2.214   2.285   2.285   2.298   2.298
232 A   233 A   234 A   235 A   236 A   237 A   238 A   239 A                  
  2.310   2.310   2.391   2.446   2.472   2.472   2.540   2.540
240 A   241 A   242 A   243 A   244 A   245 A   246 A   247 A                  
  2.711   2.711   2.826   2.867   2.916   2.916   3.777   3.777
248 A   249 A   250 A   251 A   252 A   253 A   254 A   255 A                  
  4.032   4.576   4.576   4.838   4.887   4.915   4.915   5.059
256 A   257 A   258 A   259 A   260 A   261 A   262 A   263 A                  
  5.069   5.069   6.128   6.128   6.150   6.150   6.216   6.216
264 A   265 A   266 A   267 A   268 A   269 A   270 A   271 A                  
  6.258   8.684   8.684   8.768   8.768   8.781  10.080  10.753
272 A   273 A   274 A   275 A   276 A   277 A   278 A   279 A                  
 10.753  11.225  11.748  11.748  11.880  11.880  11.918  12.646
280 A   281 A   282 A   283 A   284 A   285 A   286 A   287 A                  
 12.646  12.648  12.648  12.653  12.653  12.663  12.663  12.663
288 A   289 A   290 A   291 A   292 A   293 A   294 A   295 A                  
 13.120  13.120  13.344  13.745  16.928  16.928  16.935  16.935
296 A   297 A   298 A   299 A   300 A   301 A   302 A   303 A                  
 16.941  16.941  16.944  17.550  17.550  17.563  17.563  17.598
304 A   305 A   306 A   307 A   308 A   309 A   310 A   311 A                  
 17.598  17.623  23.817  27.686  27.686  27.739  27.739  27.748
312 A   313 A   314 A   315 A   316 A   317 A   318 A   319 A                  
 28.261  28.261  28.308  28.363  28.363  30.624  30.624  30.624
320 A   321 A   322 A   323 A   324 A   325 A   326 A   327 A                  
 30.624  30.624  30.624  30.624  30.624  30.624  30.624  30.624
328 A   329 A   330 A   331 A   332 A   333 A   334 A   335 A                  
 30.904  30.904  31.541  37.139  37.139  37.267  39.142  39.142
336 A   337 A   338 A   339 A   340 A   341 A   342 A   343 A                  
 39.143  39.143  39.145  39.145  39.146  39.146  39.146  40.225
[...]
  0.450   0.461   0.461   0.464   0.464   0.479   0.479   0.488
 96 A    97 A    98 A    99 A   100 A   101 A   102 A   103 A                  
  0.488   0.502   0.505   0.505   0.559   0.579   0.614   0.614
104 A   105 A   106 A   107 A   108 A   109 A   110 A   111 A                  
  0.632   0.632   0.643   0.643   0.670   0.670   0.683   0.683
112 A   113 A   114 A   115 A   116 A   117 A   118 A   119 A                  
  0.687   0.746   0.746   0.757   0.761   0.761   0.789   0.789
120 A   121 A   122 A   123 A   124 A   125 A   126 A   127 A                  
  0.801   0.801   0.802   0.802   0.804   0.804   0.812   0.812
128 A   129 A   130 A   131 A   132 A   133 A   134 A   135 A                  
  0.819   0.819   0.821   0.831   0.831   0.848   0.853   0.853
136 A   137 A   138 A   139 A   140 A   141 A   142 A   143 A                  
  0.864   0.864   0.890   0.890   0.897   0.897   0.900   0.932
144 A   145 A   146 A   147 A   148 A   149 A   150 A   151 A                  
  0.932   0.936   0.936   0.955   0.955   0.962   0.965   0.965
152 A   153 A   154 A   155 A   156 A   157 A   158 A   159 A                  
  0.977   0.989   0.989   1.023   1.036   1.036   1.044   1.044
160 A   161 A   162 A   163 A   164 A   165 A   166 A   167 A                  
  1.084   1.084   1.114   1.114   1.123   1.123   1.132   1.158
168 A   169 A   170 A   171 A   172 A   173 A   174 A   175 A                  
  1.158   1.275   1.295   1.295   1.334   1.334   1.364   1.410
176 A   177 A   178 A   179 A   180 A   181 A   182 A   183 A                  
  1.410   1.609   1.609   1.614   1.614   1.629   1.629   1.632
184 A   185 A   186 A   187 A   188 A   189 A   190 A   191 A                  
  1.642   1.642   1.648   1.648   1.667   1.667   1.668   1.668
192 A   193 A   194 A   195 A   196 A   197 A   198 A   199 A                  
  1.672   1.672   1.677   1.737   1.737   1.740   1.743   1.743
200 A   201 A   202 A   203 A   204 A   205 A   206 A   207 A                  
  1.790   1.790   1.855   1.855   1.898   1.925   1.932   1.932
208 A   209 A   210 A   211 A   212 A   213 A   214 A   215 A                  
  1.962   1.962   2.030   2.030   2.057   2.057   2.090   2.090
216 A   217 A   218 A   219 A   220 A   221 A   222 A   223 A                  
  2.090   2.112   2.112   2.112   2.112   2.127   2.127   2.158
224 A   225 A   226 A   227 A   228 A   229 A   230 A   231 A                  
  2.158   2.185   2.217   2.217   2.284   2.284   2.300   2.300
232 A   233 A   234 A   235 A   236 A   237 A   238 A   239 A                  
  2.311   2.311   2.391   2.447   2.474   2.474   2.540   2.540
240 A   241 A   242 A   243 A   244 A   245 A   246 A   247 A                  
  2.713   2.713   2.830   2.867   2.917   2.917   3.775   3.775
248 A   249 A   250 A   251 A   252 A   253 A   254 A   255 A                  
  4.032   4.578   4.578   4.839   4.885   4.914   4.914   5.059
256 A   257 A   258 A   259 A   260 A   261 A   262 A   263 A                  
  5.068   5.068   6.128   6.128   6.150   6.150   6.215   6.215
264 A   265 A   266 A   267 A   268 A   269 A   270 A   271 A                  
  6.257   8.684   8.684   8.768   8.768   8.782  10.083  10.753
272 A   273 A   274 A   275 A   276 A   277 A   278 A   279 A                  
 10.753  11.226  11.747  11.747  11.879  11.879  11.917  12.646
280 A   281 A   282 A   283 A   284 A   285 A   286 A   287 A                  
 12.646  12.648  12.648  12.653  12.653  12.662  12.663  12.663
288 A   289 A   290 A   291 A   292 A   293 A   294 A   295 A                  
 13.122  13.122  13.346  13.744  16.928  16.928  16.935  16.935
296 A   297 A   298 A   299 A   300 A   301 A   302 A   303 A                  
 16.941  16.941  16.944  17.549  17.549  17.563  17.563  17.598
304 A   305 A   306 A   307 A   308 A   309 A   310 A   311 A                  
 17.598  17.622  23.820  27.687  27.687  27.741  27.741  27.749
312 A   313 A   314 A   315 A   316 A   317 A   318 A   319 A                  
 28.261  28.261  28.308  28.363  28.363  30.623  30.623  30.624
320 A   321 A   322 A   323 A   324 A   325 A   326 A   327 A                  
 30.624  30.624  30.624  30.624  30.624  30.624  30.624  30.624
328 A   329 A   330 A   331 A   332 A   333 A   334 A   335 A                  
 30.904  30.904  31.541  37.142  37.142  37.270  39.142  39.142
336 A   337 A   338 A   339 A   340 A   341 A   342 A   343 A                  
 39.142  39.142  39.144  39.144  39.145  39.145  39.146  40.223
344 A   345 A   346 A   347 A   348 A   349 A   350 A   351 A                  
 44.043  44.043  44.043  44.043  44.044  44.044  44.044  44.044
352 A   353 A   354 A   355 A   356 A   357 A   358 A   359 A                  
 44.044  44.933  45.087  45.087  46.188  46.188  46.197  46.197
360 A   361 A   362 A   363 A   364 A   365 A   366 A   367 A                  
 46.234  46.234  46.242  56.219  63.114  63.114  63.117  63.117
368 A   369 A   370 A   371 A   372 A   373 A   374 A   375 A                  
 63.121  63.121  63.130  68.482  68.482  68.569  68.569  68.633
376 A   377 A   378 A   379 A   380 A   381 A   382 A   383 A                  
 84.383  84.383  84.425  84.425  84.458  96.080 106.345 106.345
384 A   385 A   386 A   387 A   388 A   389 A   390 A   391 A                  
106.561 198.787
392 A   393 A                                                                  

 Occupation and symmetry of molecular orbitals

 Point group: C1 (1 irreducible representation).

                           A     All 
 -------------------------------------
 All molecular orbitals:
  - Alpha                  393   393 
  - Beta                   393   393 
 -------------------------------------
 Alpha orbitals:
  - Frozen occupied        0     0   
  - Active occupied        7     7   
  - Active virtual         386   386 
  - Frozen virtual         0     0   
 -------------------------------------
 Beta orbitals:
  - Frozen occupied        0     0   
  - Active occupied        7     7   
  - Active virtual         386   386 
  - Frozen virtual         0     0   
 -------------------------------------

 Import integrals:   CPU 0.00 s  wall 0.00 s

 Import integrals:   CPU 22881.20 s  wall 7543.04 s

 MP2 amplitudes:   CPU 8.63 s  wall 10.57 s

Running a double precision version
           CCSD T amplitudes will be solved using DIIS.

           Start     Size      MaxIter   EConv     TConv     
           3         7         100       1.00e-06  1.00e-04  
 ------------------------------------------------------------------------------
           Energy (a.u.)   Ediff      Tdiff       Comment
 ------------------------------------------------------------------------------
          -169.73719427                           
     1    -169.74285312   5.66e-03   3.30e-01     Step took 23.27.
     2    -169.74815451   5.30e-03   4.11e-02     
     3    -169.74967547   1.52e-03   2.39e-02     
     4    -169.75237222   2.70e-03   2.71e-02     Switched to DIIS steps.
     5    -169.75357314   1.20e-03   1.27e-02     
     6    -169.75451753   9.44e-04   1.43e-02     
     7    -169.75496844   4.51e-04   4.60e-03     
     8    -169.75505983   9.14e-05   1.97e-03     
     9    -169.75500283   5.70e-05   5.33e-04     
    10    -169.75504480   4.20e-05   5.17e-04     
    11    -169.75503895   5.84e-06   1.20e-04     
    12    -169.75504050   1.55e-06   5.59e-05     
    13    -169.75504046   4.06e-08   2.09e-05     
 ------------------------------------------------------------------------------
          -169.75504046                           CCSD T converged.

End of double precision

----------------------------------------
libpt (c) 2016-2019 Ilya Kaliman
Fast Coupled Cluster Triples Corrections
https://github.com/ilyak/libpt
----------------------------------------

 Starting (T) calculation...
 Using double precision libpt code
 Running unrestricted (T) code
 Using 1 integral batch

 (T) calculation completed in 2640.13 sec
 (T) energy is -0.0057791972

 SCF energy                 = -169.32767849
 MP2 energy                 = -169.73719427
 CCSD correlation energy    =   -0.42736196
 CCSD total energy          = -169.75504046
 CCSD(T) correlation energy =   -0.00577920
 CCSD(T) total energy       = -169.76081965

 CCSD  T1^2 = 0.1289  T2^2 = 0.1309  Leading amplitudes:

 Amplitude    Orbitals with energies
  0.1638       7 (A) A                   ->    8 (A) A                    
              -0.1847                          0.0030                     
  0.1410       7 (A) B                   ->    8 (A) B                    
              -0.1827                          0.0044                     
  0.1258       7 (A) B                   ->    15 (A) B                   
              -0.1827                          0.0180                     
  0.0962       7 (A) B                   ->    22 (A) B                   
              -0.1827                          0.0542                     

 Amplitude    Orbitals with energies
  0.0485       7 (A) A       7 (A) B     ->    17 (A) A      16 (A) B     
              -0.1847       -0.1827            0.0292        0.0275       
 -0.0485       7 (A) A       7 (A) B     ->    16 (A) B      17 (A) A     
              -0.1847       -0.1827            0.0275        0.0292       
 -0.0485       7 (A) B       7 (A) A     ->    17 (A) A      16 (A) B     
              -0.1827       -0.1847            0.0292        0.0275       
  0.0485       7 (A) B       7 (A) A     ->    16 (A) B      17 (A) A     
              -0.1827       -0.1847            0.0275        0.0292       
  0.0485       7 (A) A       7 (A) B     ->    16 (A) A      17 (A) B     
              -0.1847       -0.1827            0.0292        0.0275       
 -0.0485       7 (A) A       7 (A) B     ->    17 (A) B      16 (A) A     
              -0.1847       -0.1827            0.0275        0.0292       
 -0.0485       7 (A) B       7 (A) A     ->    16 (A) A      17 (A) B     
              -0.1827       -0.1847            0.0292        0.0275       
  0.0485       7 (A) B       7 (A) A     ->    17 (A) B      16 (A) A     
              -0.1827       -0.1847            0.0275        0.0292       

 CCSD calculation:   CPU 39976.55 s  wall 21502.20 s

 Total ccman2 time:   CPU 62908.30 s  wall 29096.02 s


 --------------------------------------------------------------

                    Orbital Energies (a.u.)
 --------------------------------------------------------------

 Alpha MOs
 -- Occupied --
-40.4671  -2.7854  -2.4649  -1.5084  -1.5076  -1.5076  -0.1847
 -- Virtual --
  0.0030   0.0073   0.0096   0.0096   0.0148   0.0171   0.0171   0.0177
  0.0292   0.0292   0.0300   0.0429   0.0457   0.0457   0.0514   0.0650
  0.0650   0.0790   0.0790   0.0793   0.0814   0.0814   0.0818   0.0836
  0.0836   0.0919   0.0919   0.0931   0.1083   0.1094   0.1094   0.1278
  0.1499   0.1499   0.1759   0.1759   0.1804   0.1804   0.1810   0.1871
  0.1881   0.1881   0.1925   0.1925   0.1935   0.1935   0.2009   0.2009
  0.2064   0.2064   0.2104   0.2220   0.2220   0.2265   0.2347   0.2492
  0.2492   0.2507   0.2507   0.2943   0.3286   0.3286   0.3409   0.3424
  0.3424   0.3660   0.3660   0.3795   0.3795   0.3796   0.3870   0.3870
  0.3929   0.3929   0.4096   0.4096   0.4167   0.4167   0.4213   0.4213
  0.4214   0.4331   0.4331   0.4405   0.4405   0.4420   0.4471   0.4471
  0.4478   0.4612   0.4612   0.4621   0.4621   0.4766   0.4766   0.4857
  0.4857   0.4996   0.4996   0.5044   0.5592   0.5773   0.6132   0.6132
  0.6340   0.6340   0.6419   0.6419   0.6709   0.6709   0.6829   0.6829
  0.6874   0.7486   0.7486   0.7566   0.7619   0.7619   0.7920   0.7920
  0.8000   0.8000   0.8053   0.8053   0.8077   0.8077   0.8144   0.8144
  0.8196   0.8196   0.8230   0.8324   0.8324   0.8501   0.8541   0.8541
  0.8644   0.8644   0.8880   0.8880   0.8990   0.8990   0.9019   0.9296
  0.9296   0.9326   0.9326   0.9524   0.9524   0.9588   0.9616   0.9616
  0.9776   0.9849   0.9849   1.0205   1.0357   1.0357   1.0446   1.0446
  1.0820   1.0820   1.1124   1.1124   1.1227   1.1227   1.1301   1.1559
  1.1559   1.2729   1.2956   1.2956   1.3329   1.3329   1.3629   1.4087
  1.4087   1.6132   1.6132   1.6176   1.6176   1.6324   1.6324   1.6334
  1.6449   1.6449   1.6467   1.6467   1.6699   1.6699   1.6710   1.6710
  1.6762   1.6762   1.6806   1.7397   1.7397   1.7423   1.7460   1.7460
  1.7917   1.7917   1.8541   1.8541   1.8965   1.9257   1.9330   1.9330
  1.9583   1.9583   2.0266   2.0266   2.0524   2.0524   2.0865   2.0865
  2.0883   2.1080   2.1080   2.1086   2.1086   2.1289   2.1289   2.1547
  2.1547   2.1836   2.2141   2.2141   2.2851   2.2851   2.2977   2.2977
  2.3103   2.3103   2.3907   2.4458   2.4723   2.4723   2.5395   2.5395
  2.7112   2.7112   2.8258   2.8669   2.9163   2.9163   3.7768   3.7768
  4.0325   4.5760   4.5760   4.8382   4.8871   4.9154   4.9154   5.0594
  5.0692   5.0692   6.1281   6.1281   6.1503   6.1503   6.2156   6.2156
  6.2576   8.6837   8.6837   8.7681   8.7681   8.7814  10.0797  10.7533
 10.7533  11.2254  11.7483  11.7483  11.8798  11.8798  11.9176  12.6460
 12.6460  12.6476  12.6476  12.6526  12.6526  12.6625  12.6629  12.6629
 13.1196  13.1196  13.3437  13.7452  16.9277  16.9277  16.9350  16.9350
 16.9413  16.9413  16.9442  17.5496  17.5496  17.5631  17.5631  17.5982
 17.5982  17.6227  23.8171  27.6858  27.6858  27.7393  27.7393  27.7479
 28.2614  28.2614  28.3082  28.3635  28.3635  30.6236  30.6236  30.6236
 30.6236  30.6237  30.6237  30.6238  30.6238  30.6239  30.6239  30.6239
 30.9041  30.9041  31.5407  37.1394  37.1394  37.2674  39.1420  39.1420
 39.1427  39.1427  39.1448  39.1448  39.1457  39.1457  39.1462  40.2246
 44.0429  44.0429  44.0430  44.0430  44.0433  44.0433  44.0433  44.0433
 44.0433  44.9317  45.0875  45.0875  46.1883  46.1883  46.1972  46.1972
 46.2343  46.2343  46.2427  56.2189  63.1130  63.1130  63.1163  63.1163
 63.1195  63.1195  63.1294  68.4821  68.4821  68.5695  68.5695  68.6333
 84.3810  84.3810  84.4231  84.4231  84.4561  96.0781 106.3434 106.3434
106.5585 198.7881

 Beta MOs
 -- Occupied --
-40.4688  -2.7896  -2.4544  -1.5089  -1.5088  -1.5088  -0.1827
 -- Virtual --
  0.0044   0.0067   0.0094   0.0094   0.0161   0.0179   0.0179   0.0180
  0.0275   0.0275   0.0288   0.0438   0.0500   0.0500   0.0542   0.0646
  0.0646   0.0739   0.0739   0.0781   0.0805   0.0805   0.0825   0.0839
  0.0839   0.0916   0.0950   0.0950   0.1053   0.1143   0.1143   0.1362
  0.1493   0.1493   0.1759   0.1759   0.1800   0.1801   0.1801   0.1842
  0.1842   0.1843   0.1843   0.1872   0.1932   0.1932   0.2030   0.2030
  0.2103   0.2113   0.2113   0.2246   0.2246   0.2252   0.2299   0.2501
  0.2501   0.2529   0.2529   0.3000   0.3280   0.3280   0.3386   0.3432
  0.3432   0.3656   0.3656   0.3764   0.3764   0.3827   0.3877   0.3877
  0.3910   0.3910   0.4057   0.4057   0.4122   0.4122   0.4188   0.4188
  0.4189   0.4349   0.4349   0.4411   0.4411   0.4412   0.4466   0.4466
  0.4498   0.4612   0.4612   0.4641   0.4641   0.4786   0.4786   0.4879
  0.4879   0.5021   0.5050   0.5050   0.5587   0.5791   0.6141   0.6141
  0.6324   0.6324   0.6426   0.6426   0.6698   0.6698   0.6828   0.6828
  0.6866   0.7464   0.7464   0.7571   0.7607   0.7607   0.7890   0.7890
  0.8008   0.8008   0.8020   0.8020   0.8040   0.8040   0.8123   0.8123
  0.8187   0.8187   0.8208   0.8310   0.8310   0.8485   0.8526   0.8526
  0.8642   0.8642   0.8899   0.8899   0.8972   0.8972   0.9002   0.9325
  0.9325   0.9357   0.9357   0.9553   0.9553   0.9615   0.9648   0.9648
  0.9768   0.9892   0.9892   1.0228   1.0364   1.0364   1.0438   1.0438
  1.0842   1.0842   1.1136   1.1136   1.1235   1.1235   1.1323   1.1580
  1.1580   1.2748   1.2945   1.2945   1.3337   1.3337   1.3638   1.4103
  1.4103   1.6094   1.6094   1.6144   1.6144   1.6291   1.6291   1.6317
  1.6420   1.6420   1.6475   1.6475   1.6673   1.6673   1.6681   1.6681
  1.6724   1.6724   1.6766   1.7370   1.7370   1.7400   1.7432   1.7432
  1.7900   1.7900   1.8551   1.8551   1.8979   1.9245   1.9317   1.9317
  1.9624   1.9624   2.0297   2.0297   2.0565   2.0565   2.0897   2.0897
  2.0902   2.1115   2.1115   2.1121   2.1121   2.1274   2.1274   2.1576
  2.1576   2.1851   2.2167   2.2167   2.2844   2.2844   2.2998   2.2998
  2.3114   2.3114   2.3906   2.4472   2.4739   2.4739   2.5404   2.5404
  2.7131   2.7131   2.8302   2.8674   2.9173   2.9173   3.7755   3.7755
  4.0323   4.5784   4.5784   4.8393   4.8851   4.9144   4.9144   5.0586
  5.0683   5.0683   6.1277   6.1277   6.1500   6.1500   6.2153   6.2153
  6.2573   8.6843   8.6843   8.7685   8.7685   8.7818  10.0833  10.7525
 10.7525  11.2257  11.7474  11.7474  11.8790  11.8790  11.9170  12.6460
 12.6460  12.6476  12.6476  12.6526  12.6526  12.6625  12.6628  12.6628
 13.1224  13.1224  13.3463  13.7438  16.9278  16.9278  16.9351  16.9351
 16.9413  16.9413  16.9442  17.5491  17.5491  17.5626  17.5626  17.5977
 17.5977  17.6222  23.8195  27.6872  27.6872  27.7407  27.7407  27.7492
 28.2609  28.2609  28.3078  28.3632  28.3632  30.6235  30.6235  30.6235
 30.6235  30.6236  30.6236  30.6237  30.6237  30.6238  30.6238  30.6238
 30.9036  30.9036  31.5405  37.1421  37.1421  37.2700  39.1416  39.1416
 39.1423  39.1423  39.1445  39.1445  39.1453  39.1453  39.1459  40.2234
 44.0432  44.0432  44.0434  44.0434  44.0436  44.0436  44.0436  44.0437
 44.0437  44.9328  45.0865  45.0865  46.1879  46.1879  46.1969  46.1969
 46.2340  46.2340  46.2424  56.2192  63.1140  63.1140  63.1174  63.1174
 63.1205  63.1205  63.1305  68.4820  68.4820  68.5695  68.5695  68.6333
 84.3826  84.3826  84.4248  84.4248  84.4577  96.0802 106.3454 106.3454
106.5605 198.7869
 --------------------------------------------------------------

          Ground-State Mulliken Net Atomic Charges

     Atom                 Charge (a.u.)    Spin (a.u.)
  --------------------------------------------------------
      1 Li                   -2.468098       1.023893
      2 Na                    2.468098      -1.023893
  --------------------------------------------------------
  Sum of atomic charges =    -0.000000
  Sum of spin   charges =    -0.000000

 -----------------------------------------------------------------
                    Cartesian Multipole Moments
 -----------------------------------------------------------------
    Charge (ESU x 10^10)
                -0.0000
    Dipole Moment (Debye)
         X      -0.0000      Y      -0.0000      Z       0.7862
       Tot       0.7862
    Quadrupole Moments (Debye-Ang)
        XX     -20.1343     XY       0.0000     YY     -20.1343
        XZ       0.0000     YZ       0.0000     ZZ      -8.2382
    Octopole Moments (Debye-Ang^2)
       XXX       0.0000    XXY       0.0000    XYY       0.0000
       YYY       0.0000    XXZ     -32.1354    XYZ       0.0000
       YYZ     -32.1354    XZZ       0.0000    YZZ       0.0000
       ZZZ     -48.8299
    Hexadecapole Moments (Debye-Ang^3)
      XXXX     -97.4589   XXXY       0.0000   XXYY     -32.4863
      XYYY       0.0000   YYYY     -97.4589   XXXZ       0.0000
      XXYZ       0.0000   XYYZ       0.0000   YYYZ       0.0000
      XXZZ    -110.3376   XYZZ       0.0000   YYZZ    -110.3376
      XZZZ       0.0000   YZZZ       0.0000   ZZZZ    -405.1286
 -----------------------------------------------------------------
Archival summary:
1\1\n0041.mhg0\SP\ProcedureUnspecified\BasisUnspecified\a1i1\yhljason\ThuAug2707:47:132020ThuAug2707:47:132020\0\\#,ProcedureUnspecified,BasisUnspecified,\\0,1\Li\Na,1,2.889\\HF=-169.327678\\@

 Total job time:  29375.30s(wall), 64911.57s(cpu) 
 Thu Aug 27 07:47:13 2020

        *************************************************************
        *                                                           *
        *  Thank you very much for using Q-Chem.  Have a nice day.  *
        *                                                           *
        *************************************************************


