Q-Chem Developer Version!
                  Welcome to Q-Chem
     A Quantum Leap Into The Future Of Chemistry


 Q-Chem 5.1, Q-Chem, Inc., Pleasanton, CA (2018)

 Yihan Shao,  Zhengting Gan,  E. Epifanovsky,  A. T. B. Gilbert,  M. Wormit,  
 J. Kussmann,  A. W. Lange,  A. Behn,  Jia Deng,  Xintian Feng,  D. Ghosh,  
 M. Goldey,  P. R. Horn,  L. D. Jacobson,  I. Kaliman,  T. Kus,  A. Landau,  
 Jie Liu,  E. I. Proynov,  R. M. Richard,  R. P. Steele,  E. J. Sundstrom,  
 H. L. Woodcock III,  P. M. Zimmerman,  D. Zuev,  B. Albrecht,  E. Alguire,  
 S. A. Baeppler,  D. Barton,  Z. Benda,  Y. A. Bernard,  E. J. Berquist,  
 K. B. Bravaya,  H. Burton,  D. Casanova,  Chun-Min Chang,  Yunqing Chen,  
 A. Chien,  K. D. Closser,  M. P. Coons,  S. Coriani,  S. Dasgupta,  
 A. L. Dempwolff,  M. Diedenhofen,  Hainam Do,  R. G. Edgar,  Po-Tung Fang,  
 S. Faraji,  S. Fatehi,  Qingguo Feng,  K. D. Fenk,  J. Fosso-Tande,  
 Qinghui Ge,  A. Ghysels,  G. Gidofalvi,  J. Gomes,  J. Gonthier,  A. Gunina,  
 D. Hait,  M. W. D. Hanson-Heine,  P. H. P. Harbach,  A. W. Hauser,  
 J. E. Herr,  E. G. Hohenstein,  Z. C. Holden,  Kerwin Hui,  B. C. Huynh,  
 T.-C. Jagau,  Hyunjun Ji,  B. Kaduk,  K. Khistyaev,  Jaehoon Kim,  
 P. Klunzinger,  K. Koh,  D. Kosenkov,  L. Koulias,  T. Kowalczyk,  
 C. M. Krauter,  A. Kunitsa,  Ka Un Lao,  A. Laurent,  K. V. Lawler,  
 Joonho Lee,  D. Lefrancois,  S. Lehtola,  D. S. Levine,  Yi-Pei Li,  
 You-Sheng Lin,  Fenglai Liu,  E. Livshits,  A. Luenser,  P. Manohar,  
 E. Mansoor,  S. F. Manzer,  Shan-Ping Mao,  Yuezhi Mao,  N. Mardirossian,  
 A. V. Marenich,  T. Markovich,  L. A. Martinez-Martinez,  S. A. Maurer,  
 N. J. Mayhall,  S. C. McKenzie,  J.-M. Mewes,  A. F. Morrison,  
 J. W. Mullinax,  K. Nanda,  T. S. Nguyen-Beck,  R. Olivares-Amaya,  
 J. A. Parkhill,  T. M. Perrine,  F. Plasser,  P. Pokhilko,  S. Prager,  
 A. Prociuk,  E. Ramos,  D. R. Rehn,  F. Rob,  M. Schneider,  N. Sergueev,  
 S. M. Sharada,  S. Sharma,  D. W. Small,  T. Stauch,  T. Stein,  
 Yu-Chuan Su,  A. J. W. Thom,  A. Tkatchenko,  T. Tsuchimochi,  N. M. Tubman,  
 L. Vogt,  M. L. Vidal,  O. Vydrov,  M. A. Watson,  J. Wenzel,  
 M. de Wergifosse,  T. A. Wesolowski,  A. White,  J. Witte,  A. Yamada,  
 Jun Yang,  K. Yao,  S. Yeganeh,  S. R. Yost,  Zhi-Qiang You,  A. Zech,  
 Igor Ying Zhang,  Xing Zhang,  Yan Zhao,  Ying Zhu,  B. R. Brooks,  
 G. K. L. Chan,  C. J. Cramer,  M. S. Gordon,  W. J. Hehre,  A. Klamt,  
 M. W. Schmidt,  C. D. Sherrill,  D. G. Truhlar,  A. Aspuru-Guzik,  R. Baer,  
 A. T. Bell,  N. A. Besley,  Jeng-Da Chai,  A. E. DePrince, III,  
 R. A. DiStasio Jr.,  A. Dreuw,  B. D. Dunietz,  T. R. Furlani,  
 Chao-Ping Hsu,  Yousung Jung,  Jing Kong,  D. S. Lambrecht,  WanZhen Liang,  
 C. Ochsenfeld,  V. A. Rassolov,  L. V. Slipchenko,  J. E. Subotnik,  
 T. Van Voorhis,  J. M. Herbert,  A. I. Krylov,  P. M. W. Gill,  M. Head-Gordon

 Contributors to earlier versions of Q-Chem not listed above: 
 R. D. Adamson,  B. Austin,  J. Baker,  G. J. O. Beran,  K. Brandhorst,  
 S. T. Brown,  E. F. C. Byrd,  A. K. Chakraborty,  C.-L. Cheng,  
 Siu Hung Chien,  D. M. Chipman,  D. L. Crittenden,  H. Dachsel,  
 R. J. Doerksen,  A. D. Dutoi,  L. Fusti-Molnar,  W. A. Goddard III,  
 A. Golubeva-Zadorozhnaya,  S. R. Gwaltney,  G. Hawkins,  A. Heyden,  
 S. Hirata,  G. Kedziora,  F. J. Keil,  C. Kelley,  Jihan Kim,  R. A. King,  
 R. Z. Khaliullin,  P. P. Korambath,  W. Kurlancheek,  A. M. Lee,  M. S. Lee,  
 S. V. Levchenko,  Ching Yeh Lin,  D. Liotard,  R. C. Lochan,  I. Lotan,  
 P. E. Maslen,  N. Nair,  D. P. O'Neill,  D. Neuhauser,  E. Neuscamman,  
 C. M. Oana,  R. Olson,  B. Peters,  R. Peverati,  P. A. Pieniazek,  
 Y. M. Rhee,  J. Ritchie,  M. A. Rohrdanz,  E. Rosta,  N. J. Russ,  
 H. F. Schaefer III,  N. E. Schultz,  N. Shenvi,  A. C. Simmonett,  A. Sodt,  
 D. Stuck,  K. S. Thanthiriwatte,  V. Vanovschi,  Tao Wang,  A. Warshel,  
 C. F. Williams,  Q. Wu,  X. Xu,  W. Zhang

 Please cite Q-Chem as follows:
 Y. Shao et al., Mol. Phys. 113, 184-215 (2015)
 DOI: 10.1080/00268976.2014.952696

 Q-Chem 5.1.1 for Intel X86 EM64T Linux

 Parts of Q-Chem use Armadillo 8.300.2 (Tropical Shenanigans).
 http://arma.sourceforge.net/

 Q-Chem begins on Mon Aug 24 22:43:32 2020  

Host: n0093.mhg0
0

     Scratch files written to /local/scratch/users/yhljason/OF2_hf_aug-cc-pcV5Z.inp20200824203436//
Input Ideriv = 2
Curr. Ideriv = -1
Max.  Ideriv = 2

Checking the input file for inconsistencies... 	...done.

--------------------------------------------------------------
User input:
--------------------------------------------------------------
$molecule
0 1
O1      0.0000  0.0000  0.6049
F2      0.0000  1.1003  -0.2688
F3      0.0000  -1.1003 -0.2688
$end

$rem
jobtype sp
method hf
xc_grid 000099000590
basis aug-cc-pcV5Z
max_scf_cycles 200
thresh 14
scf_convergence 8
scf_algorithm gdm
symmetry false
sym_ignore true
unrestricted true
gen_scfman true
internal_stability_iter 15
internal_stability_davidson_iter 200
mem_total 64000
mem_static 1500
n_frozen_core 0
$end


--------------------------------------------------------------
 ----------------------------------------------------------------
             Standard Nuclear Orientation (Angstroms)
    I     Atom           X                Y                Z
 ----------------------------------------------------------------
    1      O       0.0000000000     0.0000000000     0.6049000000
    2      F       0.0000000000     1.1003000000    -0.2688000000
    3      F       0.0000000000    -1.1003000000    -0.2688000000
 ----------------------------------------------------------------
 Nuclear Repulsion Energy =    73.7141683052 hartrees
 There are       13 alpha and       13 beta electrons
 Requested basis set is aug-cc-pCV5Z
 There are 123 shells and 543 basis functions

 Total QAlloc Memory Limit  64000 MB
 Mega-Array Size      1467 MB
 MEM_STATIC part      1500 MB

                       Distance Matrix (Angstroms)
             O (  1)   F (  2)
   F (  2)  1.404995
   F (  3)  1.404995  2.200600
 
 A cutoff of  1.0D-14 yielded   6595 shell pairs
 There are    134159 function pairs (    262119 Cartesian)
 
 -------------------------------------------------------
 OpenMP Integral Computing Module                       
 Release: version 1.0, May 2013, Q-Chem Inc. Pittsburgh 
 -------------------------------------------------------
 Integral Job Info:
 Integral job number is                      11
 Integral operator is                         1
 short-range coefficients                     0
 long-range coefficients              100000000
 Omega coefficients                           0
 if combine SR and LR in K                    0
 Integral screening is                        0
 Integral computing path is                   2
 max size of driver memory is           6400000
 size of driver memory is               5498286
 size of scratch memory is             29551430
 max col of scratch BK array             194481
 max len of scratch array in speh3         5572
 max len of scratch index in speh4           72
 max int batch size is                      520
 min int batch size is                       52
 fixed nKL is                                30
 max L of basis functions is                  5
 order of int derivative is                   0
 number of shells is                        123
 number of basis is                         753
 number of cartesian basis is               753
 number of contracted shell pairs          6595
 number of primitive shell pairs          12809
 maxK2 (contraction) of shell pair          100
 max number of K2 of shell pair               1
 max number of CS2 of shell pair            635
 max number of PS2 of shell pair           1100
 mem total for path MDJ                 1380432
 -------------------------------------------------------
 Smallest overlap matrix eigenvalue = 1.79E-05

 Scale SEOQF with 1.000000e-01/1.000000e-01/1.000000e-01

 Standard Electronic Orientation quadrupole field applied
 Nucleus-field energy     =     0.0000000011 hartrees
 Guess from superposition of atomic densities
 Warning:  Energy on first SCF cycle will be non-variational
 SAD guess density has 26.000000 electrons

 -----------------------------------------------------------------------
  General SCF calculation program by
  Eric Jon Sundstrom, Paul Horn, Yuezhi Mao, Dmitri Zuev, Alec White,
  David Stuck, Shaama M.S., Shane Yost, Joonho Lee, David Small,
  Daniel Levine, Susi Lehtola, Hugh Burton, Evgeny Epifanovsky
 -----------------------------------------------------------------------
Running Object-Oriented UHF
performing a single roothaan step with Fock from read density so that orbitals are available to all algorithms
 LTot/LBra/LKet=          18           9           9

 Q-Chem warning:

 in GenH1, ket side, handled with new code

 LTot/LBra/LBra=          18           9           9

 Q-Chem warning:

 in GenH1, bra side, handled with new code

energy of the guess density (C=0) -273.415983516620
We will preform up to 15 macro iterations over saddle points until a stable solution is found
Energy prior to optimization (guess energy) = -273.474998464322
Begin Timing: Total SCF Calculation
Begin Timing: SCF Single Stationary Point Calculation
begin iterations for algorithm: GDM          
the SCF tolerance is set to 1.00e-08
    1    -273.4749984643      1.58e-01     00000  Descent step
    2    -273.5749957888      2.11e-02     00000  Normal BFGS step
    3    -273.5848445361      1.37e-02     00000  Normal BFGS step
    4    -273.5865281238      3.25e-03     00000  Normal BFGS step
    5    -273.5866588523      1.18e-03     00000  Normal BFGS step
    6    -273.5866805625      3.49e-04     00000  Normal BFGS step
    7    -273.5866818998      9.46e-05     00000  Normal BFGS step
    8    -273.5866819980      1.52e-05     00000  Normal BFGS step
    9    -273.5866820016      4.09e-06     00000  Normal BFGS step
   10    -273.5866820018      1.86e-06     00000  Normal BFGS step
   11    -273.5866820018      6.61e-07     00000  Normal BFGS step
   12    -273.5866820018      1.62e-07     00000  Normal BFGS step
   13    -273.5866820018      1.01e-07     00000  Normal BFGS step
   14    -273.5866820018      5.88e-08     00000  Normal BFGS step
   15    -273.5866820018      9.56e-09     00000 Convergence criterion met
Timing for Single Stationary Point: 7064.00s (wall), 109301.63s (cpu)
Begin Timing: Stability
===================================================
Beginning Test for Internal Stability
===================================================
generating davidson guess vectors based on koopmans excitations
    1      5.49e+00     00000 Davidson Iteration
    2      6.52e+00     00000 Davidson Iteration
    3      4.08e-01     00000 Davidson Iteration
    4      1.22e-01     00000 Davidson Iteration
    5      3.46e-02     00000 Davidson Iteration
    6      1.33e-02     00000 Davidson Iteration
    7      9.45e-03     00000 Davidson Iteration
    8      3.47e-03     00000 Davidson Iteration
    9      5.39e-04     00000 Davidson Iteration
   10      1.41e-03     00000 Davidson Iteration
   11      1.32e-03     00000 Davidson Iteration
   12      4.35e-04     00000 Davidson Iteration
   13      6.81e-05     00000 Davidson Iteration
   14      7.49e-04     00000 Davidson Iteration
   15      5.48e-04     00000 Davidson Iteration
   16      5.46e-04     00000 Davidson Iteration
   17      5.40e-04     00000 Davidson Iteration
   18      5.71e-04     00000 Davidson Iteration
   19      5.34e-04     00000 Davidson Iteration
   20      5.29e-04     00000 Davidson Iteration
   21      9.14e-05     00000 Davidson Converged
converged_eigenvalues
   0.1580
  -0.0124
Threshold for negative eigenvalues: -1.0e-05
solution was a saddle point (unstable)
displacing from saddle point as requested
performing a line search along the lowest hessian eigenvector after a small displacement (1E-3) to give a non-zero gradient along this direction 
===================================================
End Test for Internal Stability
===================================================
Timing for Internal Stability: 19314.00s (wall), 278654.23s (cpu)
completed scf stability macro iteration 1
beginning next scf after displacing from saddle point
Begin Timing: SCF Single Stationary Point Calculation
begin iterations for algorithm: GDM          
the SCF tolerance is set to 1.00e-08
    1    -273.5867523521      8.31e-04     00000  Normal BFGS step
    2    -273.5867642795      6.16e-04     00000  Normal BFGS step
    3    -273.5867659615      2.11e-04     00000  Normal BFGS step
    4    -273.5867662124      2.07e-04     00000  Normal BFGS step
    5    -273.5867663612      1.21e-04     00000  Normal BFGS step
    6    -273.5867665744      1.61e-04     00000  Normal BFGS step
    7    -273.5867668269      2.18e-04     00000  Normal BFGS step
    8    -273.5867674617      2.70e-04     00000  Normal BFGS step
    9    -273.5867682659      3.03e-04     00000  Normal BFGS step
   10    -273.5867689935      2.12e-04     00000  Normal BFGS step
   11    -273.5867693383      1.26e-04     00000  Normal BFGS step
   12    -273.5867694287      5.67e-05     00000  Normal BFGS step
   13    -273.5867694517      3.18e-05     00000  Normal BFGS step
   14    -273.5867694616      1.70e-05     00000  Normal BFGS step
   15    -273.5867694632      6.92e-06     00000  Normal BFGS step
   16    -273.5867694634      2.31e-06     00000  Normal BFGS step
   17    -273.5867694635      1.04e-06     00000  Normal BFGS step
   18    -273.5867694635      2.25e-07     00000  Normal BFGS step
   19    -273.5867694635      1.06e-07     00000  Normal BFGS step
   20    -273.5867694635      4.93e-08     00000  Normal BFGS step
   21    -273.5867694635      9.31e-09     00000 Convergence criterion met
Timing for Single Stationary Point: 9892.00s (wall), 153314.89s (cpu)
Begin Timing: Stability
===================================================
Beginning Test for Internal Stability
===================================================
generating davidson guess vectors based on koopmans excitations
    1      5.47e+00     00000 Davidson Iteration
    2      6.92e+00     00000 Davidson Iteration
    3      8.01e-01     00000 Davidson Iteration
    4      2.23e-01     00000 Davidson Iteration
    5      2.00e-02     00000 Davidson Iteration
    6      2.20e-02     00000 Davidson Iteration
    7      4.16e-03     00000 Davidson Iteration
    8      2.40e-03     00000 Davidson Iteration
    9      5.82e-04     00000 Davidson Iteration
   10      1.75e-02     00000 Davidson Iteration
   11      9.01e-04     00000 Davidson Iteration
   12      1.98e-04     00000 Davidson Iteration
   13      5.78e-05     00000 Davidson Iteration
   14      2.49e-03     00000 Davidson Iteration
   15      2.56e-03     00000 Davidson Iteration
   16      2.38e-03     00000 Davidson Iteration
   17      1.50e-03     00000 Davidson Iteration
   18      8.47e-04     00000 Davidson Iteration
   19      3.26e-04     00000 Davidson Iteration
   20      2.67e-04     00000 Davidson Iteration
   21      1.14e-04     00000 Davidson Iteration
   22      2.64e-05     00000 Davidson Converged
converged_eigenvalues
   0.1606
   0.0246
Threshold for negative eigenvalues: -1.0e-05
solution was a local minimum (stable)
===================================================
End Test for Internal Stability
===================================================
Our SCF solution is stable!
Timing for Total SCF: 53286.00s (wall), 779149.81s (cpu)
 Total energy in the final basis set =     -273.5867694635
<S^2> =          0.055961378
    ==================================================
              The end of Object-Oriented SCFman       
    ==================================================
 
 --------------------------------------------------------------
 
                    Orbital Energies (a.u.)
 --------------------------------------------------------------
 
 Alpha MOs
 -- Occupied --
-26.402 -26.402 -20.811  -1.755  -1.648  -1.274  -0.819  -0.812
 -0.798  -0.727  -0.686  -0.660  -0.578
 -- Virtual --
  0.071   0.075   0.088   0.106   0.137   0.151   0.164   0.166
  0.168   0.174   0.196   0.214   0.285   0.299   0.439   0.446
  0.450   0.453   0.460   0.466   0.505   0.545   0.570   0.586
  0.611   0.612   0.629   0.640   0.651   0.667   0.691   0.713
  0.744   0.759   0.776   0.805   0.859   0.931   0.934   1.125
  1.126   1.142   1.167   1.168   1.168   1.263   1.267   1.311
  1.314   1.382   1.405   1.406   1.410   1.513   1.530   1.571
  1.586   1.622   1.626   1.673   1.679   1.687   1.697   1.698
  1.724   1.738   1.744   1.774   1.798   1.824   1.892   1.897
  1.920   1.954   1.956   1.989   2.048   2.221   2.237   2.331
  2.458   2.534   2.542   2.555   2.660   2.778   2.828   2.851
  2.867   2.901   2.944   2.980   2.992   3.022   3.049   3.090
  3.103   3.192   3.204   3.274   3.277   3.393   3.400   3.498
  3.517   3.543   3.558   3.630   3.683   3.688   3.710   3.718
  3.780   3.836   3.869   3.873   3.954   3.960   3.963   3.967
  3.974   4.032   4.046   4.064   4.094   4.124   4.133   4.171
  4.179   4.219   4.274   4.310   4.373   4.406   4.428   4.441
  4.628   4.650   4.656   4.767   4.787   4.828   4.941   4.991
  5.049   5.069   5.197   5.417   5.439   5.489   5.514   5.625
  5.684   6.189   6.204   6.227   6.373   6.390   6.398   6.590
  6.637   6.698   6.735   6.871   6.984   7.011   7.036   7.114
  7.156   7.176   7.190   7.209   7.232   7.257   7.350   7.363
  7.506   7.589   7.619   7.642   7.807   7.810   7.847   7.857
  7.914   7.964   7.964   8.002   8.007   8.163   8.169   8.175
  8.252   8.313   8.352   8.552   8.676   8.679   8.897   8.913
  8.923   8.991   8.998   9.064   9.076   9.104   9.110   9.123
  9.245   9.246   9.286   9.359   9.412   9.458   9.469   9.508
  9.579   9.600   9.629   9.637   9.651   9.683   9.687   9.693
  9.718   9.842   9.878   9.890   9.942   9.943   9.949   9.993
 10.023  10.065  10.160  10.215  10.357  10.373  10.859  10.861
 10.915  10.968  10.969  11.091  11.164  11.219  11.580  11.637
 11.639  11.800  12.049  12.118  12.233  12.411  12.476  12.503
 12.684  12.800  13.827  13.941  14.055  15.394  15.861  16.409
 16.417  16.554  16.571  16.606  16.662  16.681  16.693  16.735
 16.769  16.874  16.962  16.963  17.172  17.580  18.147  18.395
 19.134  19.175  19.268  19.308  19.389  19.490  19.537  19.555
 19.584  19.874  20.024  20.027  20.078  20.500  20.531  20.804
 20.893  20.898  20.918  20.919  20.938  20.942  20.977  20.995
 21.149  21.208  21.268  21.312  21.587  21.591  21.608  21.621
 21.627  21.663  21.704  21.721  21.765  21.831  22.395  22.571
 22.686  23.130  23.554  24.487  24.494  24.517  24.528  24.531
 24.597  24.620  24.680  24.691  24.785  24.787  24.869  25.116
 25.127  25.149  25.200  25.255  25.278  25.530  25.533  25.536
 25.551  25.756  25.829  25.867  25.880  26.479  26.490  26.671
 26.681  26.723  27.149  28.253  28.270  28.304  28.391  28.865
 28.871  28.886  29.228  29.842  29.893  30.637  37.228  37.533
 38.241  39.572  40.202  46.776  46.787  46.803  46.909  48.201
 48.206  61.369  61.373  61.624  61.946  62.286  71.701  71.786
 71.936  71.980  72.021  72.311  72.336  79.395  79.402  79.423
 79.473  79.723  79.743  79.749  79.977  80.353  80.368  82.769
 92.814  92.817  92.820  92.823  92.889  92.913  92.929  92.933
 93.133  93.161  93.204  93.241  93.295  93.332 103.199 103.517
107.376 108.403 108.920 131.653 131.663 131.679 131.755 132.806
132.809 181.333 181.337 181.516 181.750 181.967 220.404 234.024
234.027 234.043 234.078 234.254 234.268 234.270 234.430 234.667
234.676 245.481 245.487 245.494 245.496 245.505 245.511 245.516
245.522 245.522 249.649 249.649 249.651 249.651 249.652 249.652
249.653 249.653 249.653 249.655 249.661 249.663 249.663 249.664
249.682 249.682 249.683 249.683 273.805 274.128 291.276 291.310
291.369 291.379 291.403 291.511 291.533 298.493 299.358 299.809
366.431 366.442 366.448 366.514 367.138 367.143 367.327 367.328
367.329 367.331 367.357 367.366 367.373 367.381 367.471 367.487
367.510 367.522 367.808 367.829 556.522 556.529 556.655 556.821
556.966 583.869 712.745 712.747 712.758 712.782 712.910 712.921
712.921 713.030 713.166 713.174 717.954 718.265 837.149 837.871
838.2521028.7931028.8001028.8141028.8641029.6291029.6342073.936
*******2524.685
 
 Beta MOs
 -- Occupied --
-26.394 -26.394 -20.823  -1.748  -1.622  -1.293  -0.820  -0.808
 -0.789  -0.719  -0.674  -0.653  -0.583
 -- Virtual --
  0.069   0.074   0.090   0.106   0.133   0.151   0.163   0.166
  0.168   0.171   0.195   0.214   0.286   0.301   0.436   0.446
  0.449   0.450   0.459   0.463   0.502   0.545   0.572   0.588
  0.613   0.614   0.630   0.641   0.652   0.667   0.694   0.713
  0.746   0.759   0.776   0.803   0.858   0.932   0.933   1.123
  1.125   1.140   1.165   1.166   1.167   1.259   1.266   1.309
  1.309   1.379   1.403   1.404   1.409   1.513   1.531   1.570
  1.587   1.621   1.626   1.674   1.681   1.689   1.698   1.700
  1.724   1.739   1.748   1.775   1.806   1.825   1.894   1.900
  1.920   1.955   1.958   1.991   2.049   2.222   2.231   2.328
  2.458   2.534   2.543   2.553   2.657   2.779   2.823   2.847
  2.866   2.898   2.942   2.973   2.991   3.018   3.043   3.084
  3.102   3.185   3.203   3.274   3.276   3.390   3.400   3.498
  3.517   3.542   3.558   3.626   3.684   3.689   3.710   3.720
  3.781   3.836   3.871   3.873   3.956   3.960   3.964   3.967
  3.974   4.035   4.047   4.064   4.095   4.126   4.136   4.172
  4.183   4.220   4.284   4.312   4.375   4.408   4.428   4.445
  4.631   4.658   4.659   4.766   4.788   4.832   4.945   4.991
  5.048   5.072   5.200   5.418   5.437   5.489   5.510   5.624
  5.681   6.188   6.203   6.225   6.373   6.389   6.395   6.590
  6.634   6.695   6.734   6.873   6.982   7.008   7.033   7.110
  7.153   7.172   7.187   7.205   7.229   7.253   7.345   7.360
  7.505   7.585   7.617   7.639   7.802   7.805   7.845   7.851
  7.908   7.964   7.964   8.001   8.007   8.163   8.169   8.175
  8.250   8.309   8.350   8.553   8.666   8.678   8.898   8.911
  8.923   8.991   8.997   9.065   9.076   9.102   9.102   9.125
  9.246   9.248   9.288   9.362   9.415   9.461   9.472   9.511
  9.581   9.597   9.632   9.640   9.652   9.686   9.690   9.693
  9.721   9.846   9.882   9.889   9.944   9.944   9.954  10.001
 10.027  10.069  10.165  10.220  10.364  10.381  10.860  10.863
 10.916  10.970  10.972  11.092  11.165  11.222  11.587  11.643
 11.647  11.807  12.053  12.122  12.234  12.414  12.481  12.505
 12.686  12.800  13.825  13.941  14.052  15.386  15.856  16.404
 16.412  16.549  16.567  16.604  16.664  16.677  16.692  16.734
 16.768  16.874  16.956  16.957  17.170  17.573  18.155  18.400
 19.125  19.167  19.257  19.302  19.383  19.480  19.530  19.546
 19.576  19.867  20.015  20.019  20.068  20.492  20.522  20.794
 20.894  20.898  20.918  20.920  20.940  20.944  20.979  20.997
 21.153  21.212  21.271  21.315  21.591  21.596  21.612  21.624
 21.631  21.667  21.708  21.726  21.769  21.835  22.386  22.563
 22.679  23.122  23.546  24.487  24.495  24.519  24.529  24.535
 24.601  24.623  24.684  24.698  24.791  24.793  24.876  25.124
 25.136  25.157  25.208  25.263  25.286  25.531  25.534  25.537
 25.553  25.762  25.835  25.873  25.886  26.488  26.499  26.678
 26.689  26.732  27.157  28.255  28.272  28.306  28.393  28.873
 28.880  28.895  29.236  29.852  29.903  30.632  37.231  37.536
 38.239  39.564  40.196  46.778  46.789  46.805  46.911  48.209
 48.214  61.364  61.368  61.620  61.939  62.279  71.694  71.780
 71.932  71.975  72.015  72.303  72.329  79.396  79.403  79.424
 79.474  79.728  79.748  79.754  79.981  80.359  80.374  82.766
 92.815  92.818  92.821  92.824  92.893  92.916  92.933  92.937
 93.138  93.166  93.209  93.246  93.300  93.338 103.201 103.518
107.375 108.399 108.917 131.654 131.664 131.679 131.756 132.810
132.813 181.331 181.335 181.515 181.748 181.964 220.403 234.024
234.028 234.043 234.078 234.255 234.270 234.272 234.432 234.669
234.678 245.478 245.484 245.491 245.494 245.504 245.509 245.515
245.520 245.521 249.651 249.651 249.653 249.653 249.654 249.654
249.655 249.655 249.655 249.658 249.662 249.664 249.664 249.666
249.682 249.682 249.684 249.684 273.806 274.129 291.275 291.308
291.368 291.378 291.402 291.509 291.532 298.493 299.357 299.808
366.432 366.442 366.448 366.515 367.140 367.145 367.327 367.329
367.330 367.332 367.358 367.367 367.374 367.382 367.473 367.488
367.511 367.523 367.809 367.830 556.522 556.529 556.655 556.820
556.966 583.869 712.745 712.747 712.758 712.782 712.911 712.921
712.922 713.030 713.167 713.175 717.954 718.265 837.149 837.871
838.2521028.7931028.8001028.8141028.8641029.6291029.6352073.936
*******2524.685
 --------------------------------------------------------------
 
          Ground-State Mulliken Net Atomic Charges

     Atom                 Charge (a.u.)    Spin (a.u.)
  --------------------------------------------------------
      1 O                     0.273835      -0.322283
      2 F                    -0.136918       0.161141
      3 F                    -0.136918       0.161141
  --------------------------------------------------------
  Sum of atomic charges =     0.000000
  Sum of spin   charges =     0.000000

 -----------------------------------------------------------------
                    Cartesian Multipole Moments
 -----------------------------------------------------------------
    Charge (ESU x 10^10)
                 0.0000
    Dipole Moment (Debye)
         X       0.0000      Y       0.0000      Z       0.4172
       Tot       0.4172
    Quadrupole Moments (Debye-Ang)
        XX     -14.7119     XY      -0.0000     YY     -14.8286
        XZ      -0.0000     YZ       0.0000     ZZ     -14.2408
    Octopole Moments (Debye-Ang^2)
       XXX      -0.0000    XXY      -0.0000    XYY       0.0000
       YYY      -0.0000    XXZ      -0.6072    XYZ      -0.0000
       YYZ      -0.5769    XZZ      -0.0000    YZZ      -0.0000
       ZZZ      -1.1801
    Hexadecapole Moments (Debye-Ang^3)
      XXXX      -9.1496   XXXY      -0.0000   XXYY     -14.7173
      XYYY      -0.0000   YYYY     -76.1328   XXXZ      -0.0000
      XXYZ       0.0000   XYYZ      -0.0000   YYYZ       0.0000
      XXZZ      -5.7851   XYZZ      -0.0000   YYZZ     -15.6131
      XZZZ      -0.0000   YZZZ       0.0000   ZZZZ     -23.4521
 -----------------------------------------------------------------
Archival summary:
1\1\n0093.mhg0\SP\HF\BasisUnspecified\21\yhljason\TueAug2513:40:452020TueAug2513:40:452020\0\\#,HF,BasisUnspecified,\\0,1\O\F,1,1.405\F,1,1.405,2,103.097\\HF=-273.586769\\@

 Total job time:  53833.46s(wall), 786822.26s(cpu) 
 Tue Aug 25 13:40:45 2020

        *************************************************************
        *                                                           *
        *  Thank you very much for using Q-Chem.  Have a nice day.  *
        *                                                           *
        *************************************************************


