Q-Chem Developer Version!
                  Welcome to Q-Chem
     A Quantum Leap Into The Future Of Chemistry


 Q-Chem 5.1, Q-Chem, Inc., Pleasanton, CA (2018)

 Yihan Shao,  Zhengting Gan,  E. Epifanovsky,  A. T. B. Gilbert,  M. Wormit,  
 J. Kussmann,  A. W. Lange,  A. Behn,  Jia Deng,  Xintian Feng,  D. Ghosh,  
 M. Goldey,  P. R. Horn,  L. D. Jacobson,  I. Kaliman,  T. Kus,  A. Landau,  
 Jie Liu,  E. I. Proynov,  R. M. Richard,  R. P. Steele,  E. J. Sundstrom,  
 H. L. Woodcock III,  P. M. Zimmerman,  D. Zuev,  B. Albrecht,  E. Alguire,  
 S. A. Baeppler,  D. Barton,  Z. Benda,  Y. A. Bernard,  E. J. Berquist,  
 K. B. Bravaya,  H. Burton,  D. Casanova,  Chun-Min Chang,  Yunqing Chen,  
 A. Chien,  K. D. Closser,  M. P. Coons,  S. Coriani,  S. Dasgupta,  
 A. L. Dempwolff,  M. Diedenhofen,  Hainam Do,  R. G. Edgar,  Po-Tung Fang,  
 S. Faraji,  S. Fatehi,  Qingguo Feng,  K. D. Fenk,  J. Fosso-Tande,  
 Qinghui Ge,  A. Ghysels,  G. Gidofalvi,  J. Gomes,  J. Gonthier,  A. Gunina,  
 D. Hait,  M. W. D. Hanson-Heine,  P. H. P. Harbach,  A. W. Hauser,  
 J. E. Herr,  E. G. Hohenstein,  Z. C. Holden,  Kerwin Hui,  B. C. Huynh,  
 T.-C. Jagau,  Hyunjun Ji,  B. Kaduk,  K. Khistyaev,  Jaehoon Kim,  
 P. Klunzinger,  K. Koh,  D. Kosenkov,  L. Koulias,  T. Kowalczyk,  
 C. M. Krauter,  A. Kunitsa,  Ka Un Lao,  A. Laurent,  K. V. Lawler,  
 Joonho Lee,  D. Lefrancois,  S. Lehtola,  D. S. Levine,  Yi-Pei Li,  
 You-Sheng Lin,  Fenglai Liu,  E. Livshits,  A. Luenser,  P. Manohar,  
 E. Mansoor,  S. F. Manzer,  Shan-Ping Mao,  Yuezhi Mao,  N. Mardirossian,  
 A. V. Marenich,  T. Markovich,  L. A. Martinez-Martinez,  S. A. Maurer,  
 N. J. Mayhall,  S. C. McKenzie,  J.-M. Mewes,  A. F. Morrison,  
 J. W. Mullinax,  K. Nanda,  T. S. Nguyen-Beck,  R. Olivares-Amaya,  
 J. A. Parkhill,  T. M. Perrine,  F. Plasser,  P. Pokhilko,  S. Prager,  
 A. Prociuk,  E. Ramos,  D. R. Rehn,  F. Rob,  M. Schneider,  N. Sergueev,  
 S. M. Sharada,  S. Sharma,  D. W. Small,  T. Stauch,  T. Stein,  
 Yu-Chuan Su,  A. J. W. Thom,  A. Tkatchenko,  T. Tsuchimochi,  N. M. Tubman,  
 L. Vogt,  M. L. Vidal,  O. Vydrov,  M. A. Watson,  J. Wenzel,  
 M. de Wergifosse,  T. A. Wesolowski,  A. White,  J. Witte,  A. Yamada,  
 Jun Yang,  K. Yao,  S. Yeganeh,  S. R. Yost,  Zhi-Qiang You,  A. Zech,  
 Igor Ying Zhang,  Xing Zhang,  Yan Zhao,  Ying Zhu,  B. R. Brooks,  
 G. K. L. Chan,  C. J. Cramer,  M. S. Gordon,  W. J. Hehre,  A. Klamt,  
 M. W. Schmidt,  C. D. Sherrill,  D. G. Truhlar,  A. Aspuru-Guzik,  R. Baer,  
 A. T. Bell,  N. A. Besley,  Jeng-Da Chai,  A. E. DePrince, III,  
 R. A. DiStasio Jr.,  A. Dreuw,  B. D. Dunietz,  T. R. Furlani,  
 Chao-Ping Hsu,  Yousung Jung,  Jing Kong,  D. S. Lambrecht,  WanZhen Liang,  
 C. Ochsenfeld,  V. A. Rassolov,  L. V. Slipchenko,  J. E. Subotnik,  
 T. Van Voorhis,  J. M. Herbert,  A. I. Krylov,  P. M. W. Gill,  M. Head-Gordon

 Contributors to earlier versions of Q-Chem not listed above: 
 R. D. Adamson,  B. Austin,  J. Baker,  G. J. O. Beran,  K. Brandhorst,  
 S. T. Brown,  E. F. C. Byrd,  A. K. Chakraborty,  C.-L. Cheng,  
 Siu Hung Chien,  D. M. Chipman,  D. L. Crittenden,  H. Dachsel,  
 R. J. Doerksen,  A. D. Dutoi,  L. Fusti-Molnar,  W. A. Goddard III,  
 A. Golubeva-Zadorozhnaya,  S. R. Gwaltney,  G. Hawkins,  A. Heyden,  
 S. Hirata,  G. Kedziora,  F. J. Keil,  C. Kelley,  Jihan Kim,  R. A. King,  
 R. Z. Khaliullin,  P. P. Korambath,  W. Kurlancheek,  A. M. Lee,  M. S. Lee,  
 S. V. Levchenko,  Ching Yeh Lin,  D. Liotard,  R. C. Lochan,  I. Lotan,  
 P. E. Maslen,  N. Nair,  D. P. O'Neill,  D. Neuhauser,  E. Neuscamman,  
 C. M. Oana,  R. Olson,  B. Peters,  R. Peverati,  P. A. Pieniazek,  
 Y. M. Rhee,  J. Ritchie,  M. A. Rohrdanz,  E. Rosta,  N. J. Russ,  
 H. F. Schaefer III,  N. E. Schultz,  N. Shenvi,  A. C. Simmonett,  A. Sodt,  
 D. Stuck,  K. S. Thanthiriwatte,  V. Vanovschi,  Tao Wang,  A. Warshel,  
 C. F. Williams,  Q. Wu,  X. Xu,  W. Zhang

 Please cite Q-Chem as follows:
 Y. Shao et al., Mol. Phys. 113, 184-215 (2015)
 DOI: 10.1080/00268976.2014.952696

 Q-Chem 5.1.1 for Intel X86 EM64T Linux

 Parts of Q-Chem use Armadillo 8.300.2 (Tropical Shenanigans).
 http://arma.sourceforge.net/

 Q-Chem begins on Mon Sep 14 16:11:43 2020  

Host: n0088.mhg0
0

     Scratch files written to /local/scratch/users/yhljason/BH4-_mBEEF_aug-pc-4.inp20200914161140//
Input Ideriv = 2
Curr. Ideriv = -1
Max.  Ideriv = 2
Input Ideriv = 1
Curr. Ideriv = 2
Max.  Ideriv = 1

Checking the input file for inconsistencies... 	...done.

--------------------------------------------------------------
User input:
--------------------------------------------------------------
$molecule
-1 1
B1       0.0000000000    0.0000000000    0.0000000000
H2       0.7123986049    0.7123986049    0.7123986049
H3        -0.7123986049   -0.7123986049    0.7123986049
H4       -0.7123986049    0.7123986049   -0.7123986049
H5         0.7123986049   -0.7123986049   -0.7123986049
$end

$rem
jobtype sp
method mBEEF
xc_grid 000099000590
basis aug-pc-4
max_scf_cycles 200
thresh 14
scf_convergence 8
scf_algorithm gdm
symmetry false
sym_ignore true
unrestricted true
gen_scfman true
internal_stability_iter 15
internal_stability_davidson_iter 200
mem_total 64000
mem_static 1500
n_frozen_core 0
$end


--------------------------------------------------------------
 ----------------------------------------------------------------
             Standard Nuclear Orientation (Angstroms)
    I     Atom           X                Y                Z
 ----------------------------------------------------------------
    1      B       0.0000000000     0.0000000000     0.0000000000
    2      H       0.7123986049     0.7123986049     0.7123986049
    3      H      -0.7123986049    -0.7123986049     0.7123986049
    4      H      -0.7123986049     0.7123986049    -0.7123986049
    5      H       0.7123986049    -0.7123986049    -0.7123986049
 ----------------------------------------------------------------
 Nuclear Repulsion Energy =    10.1529767674 hartrees
 There are        5 alpha and        5 beta electrons
 Requested basis set is aug-pc-4
 There are 129 shells and 497 basis functions

 Total QAlloc Memory Limit  64000 MB
 Mega-Array Size      1467 MB
 MEM_STATIC part      1500 MB

                       Distance Matrix (Angstroms)
             B (  1)   H (  2)   H (  3)   H (  4)
   H (  2)  1.233911
   H (  3)  1.233911  2.014968
   H (  4)  1.233911  2.014968  2.014968
   H (  5)  1.233911  2.014968  2.014968  2.014968
 
 A cutoff of  1.0D-14 yielded   8291 shell pairs
 There are    124255 function pairs (    216039 Cartesian)
 
 -------------------------------------------------------
 OpenMP Integral Computing Module                       
 Release: version 1.0, May 2013, Q-Chem Inc. Pittsburgh 
 -------------------------------------------------------
 Integral Job Info:
 Integral job number is                      11
 Integral operator is                         1
 short-range coefficients                     0
 long-range coefficients              100000000
 Omega coefficients                           0
 if combine SR and LR in K                    0
 Integral screening is                        0
 Integral computing path is                   2
 max size of driver memory is           6400000
 size of driver memory is               5498286
 size of scratch memory is             29792225
 max col of scratch BK array             194481
 max len of scratch array in speh3         5572
 max len of scratch index in speh4           72
 max int batch size is                      520
 min int batch size is                       52
 fixed nKL is                                25
 max L of basis functions is                  5
 order of int derivative is                   0
 number of shells is                        129
 number of basis is                         654
 number of cartesian basis is               654
 number of contracted shell pairs          8291
 number of primitive shell pairs          13139
 maxK2 (contraction) of shell pair          121
 max number of K2 of shell pair               1
 max number of CS2 of shell pair           1217
 max number of PS2 of shell pair           1217
 mem total for path MDJ                 1193104
 -------------------------------------------------------
 Smallest overlap matrix eigenvalue = 1.69E-07
 Linear dependence detected in AO basis
 Number of orthogonalized atomic orbitals = 493
 Maximum deviation from orthogonality = 3.268E-10

 Scale SEOQF with 1.000000e-01/1.000000e-01/1.000000e-01

 Standard Electronic Orientation quadrupole field applied
 Guess from superposition of atomic densities
 Warning:  Energy on first SCF cycle will be non-variational
 SAD guess density has 9.000000 electrons

 -----------------------------------------------------------------------
  General SCF calculation program by
  Eric Jon Sundstrom, Paul Horn, Yuezhi Mao, Dmitri Zuev, Alec White,
  David Stuck, Shaama M.S., Shane Yost, Joonho Lee, David Small,
  Daniel Levine, Susi Lehtola, Hugh Burton, Evgeny Epifanovsky
 -----------------------------------------------------------------------
 Exchange:  mBEEF      Correlation:  PBEsol
 Using Euler-Maclaurin-Lebedev (99,590) quadrature formula
Running Object-Oriented UKS (UHF)
performing a single roothaan step with Fock from read density so that orbitals are available to all algorithms
energy of the guess density (C=0) -27.204115404030
We will preform up to 15 macro iterations over saddle points until a stable solution is found
Energy prior to optimization (guess energy) = -27.338392390509
Begin Timing: Total SCF Calculation
Begin Timing: SCF Single Stationary Point Calculation
begin iterations for algorithm: GDM          
the SCF tolerance is set to 1.00e-08
    1     -27.3383923905      1.46e-01     00000  Descent step
    2     -27.4655650863      4.66e-02     00000  Normal BFGS step
    3     -27.4790713464      1.43e-02     00000  Normal BFGS step
    4     -27.4810416649      3.15e-03     00000  Normal BFGS step
    5     -27.4811051194      2.75e-04     00000  Normal BFGS step
    6     -27.4811061639      1.72e-05     00000  Normal BFGS step
    7     -27.4811061684      1.74e-06     00000  Normal BFGS step
    8     -27.4811061684      8.78e-08     00000  Normal BFGS step
    9     -27.4811061684      2.79e-08     00000  Normal BFGS step
   10     -27.4811061684      1.43e-08     00000  Normal BFGS step
   11     -27.4811061684      4.26e-10     00000 Convergence criterion met
Timing for Single Stationary Point: 698.00s (wall), 5572.46s (cpu)
Begin Timing: Stability
===================================================
Beginning Test for Internal Stability
===================================================
generating davidson guess vectors based on koopmans excitations
    1      3.46e-01     00000 Davidson Iteration
    2      5.91e-02     00000 Davidson Iteration
    3      1.12e-02     00000 Davidson Iteration
    4      8.42e-03     00000 Davidson Iteration
    5      1.93e-03     00000 Davidson Iteration
    6      1.16e-03     00000 Davidson Iteration
    7      5.12e-04     00000 Davidson Iteration
    8      2.28e-04     00000 Davidson Iteration
    9      7.73e-04     00000 Davidson Iteration
   10      1.26e-04     00000 Davidson Iteration
   11      6.37e-05     00000 Davidson Iteration
   12      6.70e-05     00000 Davidson Converged
converged_eigenvalues
   0.2618
   0.2600
Threshold for negative eigenvalues: -1.0e-05
solution was a local minimum (stable)
===================================================
End Test for Internal Stability
===================================================
Our SCF solution is stable!
Timing for Total SCF: 8512.00s (wall), 68051.16s (cpu)
 Total energy in the final basis set =      -27.4811061684
<S^2> =          0.000000000
    ==================================================
              The end of Object-Oriented SCFman       
    ==================================================
 
 --------------------------------------------------------------
 
                    Orbital Energies (a.u.)
 --------------------------------------------------------------
 
 Alpha MOs
 -- Occupied --
 -6.325  -0.232  -0.045  -0.045  -0.045
 -- Virtual --
  0.087   0.087   0.087   0.094   0.117   0.117   0.117   0.147
  0.152   0.152   0.156   0.156   0.156   0.184   0.184   0.184
  0.196   0.196   0.196   0.208   0.217   0.217   0.217   0.248
  0.251   0.251   0.254   0.254   0.254   0.272   0.272   0.272
  0.275   0.275   0.275   0.287   0.287   0.302   0.302   0.302
  0.327   0.338   0.338   0.338   0.370   0.370   0.370   0.370
  0.377   0.377   0.377   0.380   0.380   0.402   0.402   0.402
  0.405   0.405   0.405   0.414   0.415   0.415   0.430   0.430
  0.430   0.451   0.451   0.451   0.482   0.482   0.493   0.493
  0.493   0.498   0.498   0.498   0.531   0.531   0.540   0.543
  0.543   0.543   0.549   0.549   0.549   0.552   0.581   0.582
  0.582   0.582   0.584   0.584   0.584   0.631   0.631   0.631
  0.648   0.651   0.651   0.651   0.670   0.670   0.683   0.683
  0.705   0.705   0.705   0.716   0.716   0.716   0.726   0.747
  0.747   0.747   0.785   0.785   0.785   0.807   0.807   0.818
  0.818   0.818   0.833   0.833   0.833   0.847   0.847   0.847
  0.861   0.861   0.872   0.872   0.872   0.880   0.880   0.880
  0.891   0.891   0.891   0.895   0.913   0.913   0.913   0.944
  0.949   0.949   0.949   0.951   0.951   0.972   0.990   0.990
  0.990   0.994   0.994   0.994   1.025   1.033   1.033   1.033
  1.059   1.059   1.064   1.064   1.064   1.133   1.133   1.133
  1.143   1.143   1.143   1.192   1.192   1.339   1.339   1.339
  1.346   1.594   1.602   1.602   1.626   1.626   1.626   1.658
  1.658   1.658   1.734   1.734   1.734   1.778   1.778   1.778
  1.814   1.814   1.819   1.819   1.819   1.899   1.918   1.918
  1.918   1.955   1.955   1.999   1.999   1.999   2.074   2.074
  2.074   2.107   2.107   2.107   2.226   2.416   2.416   2.416
  2.433   2.433   2.433   2.540   2.636   2.636   2.636   2.652
  2.652   2.989   2.989   2.989   2.996   3.350   3.350   3.350
  3.372   3.372   3.495   3.495   3.495   3.582   3.582   3.582
  3.728   3.728   3.817   3.817   3.817   3.919   3.919   3.919
  3.926   4.048   4.048   4.048   4.133   4.170   4.170   4.170
  4.254   4.254   4.254   4.272   4.272   4.294   4.379   4.379
  4.460   4.460   4.460   4.522   4.522   4.522   4.522   4.528
  4.528   4.528   4.576   4.576   4.576   4.698   4.698   4.728
  4.801   4.801   4.801   5.077   5.077   5.077   5.306   5.306
  5.306   5.370   5.370   5.370   5.594   5.594   5.594   5.614
  5.823   5.823   5.823   6.183   6.183   6.183   6.220   6.220
  6.265   6.323   6.627   6.627   6.734   6.734   6.734   6.999
  6.999   6.999   7.203   7.203   7.203   8.554   8.554   8.643
  8.906   8.906   8.906   8.988   8.988   8.988   9.248   9.248
  9.248   9.295   9.295   9.304   9.304   9.304   9.388   9.404
  9.404   9.404   9.478   9.478   9.571   9.571   9.571   9.683
  9.683   9.683   9.928   9.928   9.928  10.268  10.268  10.346
 10.346  10.346  10.348  10.553  10.553  10.553  10.626  10.626
 10.626  10.738  10.738  11.135  11.142  11.142  11.142  11.320
 11.320  11.320  11.607  11.607  11.607  11.889  11.889  11.901
 11.901  11.901  12.078  12.286  12.286  12.286  12.896  12.940
 12.940  12.940  12.992  13.032  13.032  13.032  13.169  13.169
 13.170  13.170  13.170  13.216  13.548  13.548  13.548  13.556
 13.556  13.556  13.869  13.869  13.869  13.878  13.878  13.878
 14.646  14.646  14.646  14.892  15.068  15.068  16.280  16.280
 16.280  17.192  17.314  17.314  17.314  17.328  17.328  17.336
 17.336  17.336  17.460  17.460  17.460  17.479  17.479  17.479
 17.546  18.009  18.009  18.009  18.195  18.195  18.282  18.282
 18.282  19.157  19.157  19.157  19.489  19.770  19.770  19.770
 19.872  19.872  19.886  19.886  19.886  21.509  21.831  21.831
 23.216  23.216  23.216  23.831  23.831  23.831  23.904  23.904
 23.904  24.039  24.039  24.624  25.159  25.159  25.159  40.861
 40.861  40.861  41.049  80.521  91.233  91.233  91.233  91.277
 91.277  91.277  91.369  91.369  91.765  92.161  92.161  92.161
 
 Beta MOs
 -- Occupied --
 -6.325  -0.232  -0.045  -0.045  -0.045
 -- Virtual --
  0.087   0.087   0.087   0.094   0.117   0.117   0.117   0.147
  0.152   0.152   0.156   0.156   0.156   0.184   0.184   0.184
  0.196   0.196   0.196   0.208   0.217   0.217   0.217   0.248
  0.251   0.251   0.254   0.254   0.254   0.272   0.272   0.272
  0.275   0.275   0.275   0.287   0.287   0.302   0.302   0.302
  0.327   0.338   0.338   0.338   0.370   0.370   0.370   0.370
  0.377   0.377   0.377   0.380   0.380   0.402   0.402   0.402
  0.405   0.405   0.405   0.414   0.415   0.415   0.430   0.430
  0.430   0.451   0.451   0.451   0.482   0.482   0.493   0.493
  0.493   0.498   0.498   0.498   0.531   0.531   0.540   0.543
  0.543   0.543   0.549   0.549   0.549   0.552   0.581   0.582
  0.582   0.582   0.584   0.584   0.584   0.631   0.631   0.631
  0.648   0.651   0.651   0.651   0.670   0.670   0.683   0.683
  0.705   0.705   0.705   0.716   0.716   0.716   0.726   0.747
  0.747   0.747   0.785   0.785   0.785   0.807   0.807   0.818
  0.818   0.818   0.833   0.833   0.833   0.847   0.847   0.847
  0.861   0.861   0.872   0.872   0.872   0.880   0.880   0.880
  0.891   0.891   0.891   0.895   0.913   0.913   0.913   0.944
  0.949   0.949   0.949   0.951   0.951   0.972   0.990   0.990
  0.990   0.994   0.994   0.994   1.025   1.033   1.033   1.033
  1.059   1.059   1.064   1.064   1.064   1.133   1.133   1.133
  1.143   1.143   1.143   1.192   1.192   1.339   1.339   1.339
  1.346   1.594   1.602   1.602   1.626   1.626   1.626   1.658
  1.658   1.658   1.734   1.734   1.734   1.778   1.778   1.778
  1.814   1.814   1.819   1.819   1.819   1.899   1.918   1.918
  1.918   1.955   1.955   1.999   1.999   1.999   2.074   2.074
  2.074   2.107   2.107   2.107   2.226   2.416   2.416   2.416
  2.433   2.433   2.433   2.540   2.636   2.636   2.636   2.652
  2.652   2.989   2.989   2.989   2.996   3.350   3.350   3.350
  3.372   3.372   3.495   3.495   3.495   3.582   3.582   3.582
  3.728   3.728   3.817   3.817   3.817   3.919   3.919   3.919
  3.926   4.048   4.048   4.048   4.133   4.170   4.170   4.170
  4.254   4.254   4.254   4.272   4.272   4.294   4.379   4.379
  4.460   4.460   4.460   4.522   4.522   4.522   4.522   4.528
  4.528   4.528   4.576   4.576   4.576   4.698   4.698   4.728
  4.801   4.801   4.801   5.077   5.077   5.077   5.306   5.306
  5.306   5.370   5.370   5.370   5.594   5.594   5.594   5.614
  5.823   5.823   5.823   6.183   6.183   6.183   6.220   6.220
  6.265   6.323   6.627   6.627   6.734   6.734   6.734   6.999
  6.999   6.999   7.203   7.203   7.203   8.554   8.554   8.643
  8.906   8.906   8.906   8.988   8.988   8.988   9.248   9.248
  9.248   9.295   9.295   9.304   9.304   9.304   9.388   9.404
  9.404   9.404   9.478   9.478   9.571   9.571   9.571   9.683
  9.683   9.683   9.928   9.928   9.928  10.268  10.268  10.346
 10.346  10.346  10.348  10.553  10.553  10.553  10.626  10.626
 10.626  10.738  10.738  11.135  11.142  11.142  11.142  11.320
 11.320  11.320  11.607  11.607  11.607  11.889  11.889  11.901
 11.901  11.901  12.078  12.286  12.286  12.286  12.896  12.940
 12.940  12.940  12.992  13.032  13.032  13.032  13.169  13.169
 13.170  13.170  13.170  13.216  13.548  13.548  13.548  13.556
 13.556  13.556  13.869  13.869  13.869  13.878  13.878  13.878
 14.646  14.646  14.646  14.892  15.068  15.068  16.280  16.280
 16.280  17.192  17.314  17.314  17.314  17.328  17.328  17.336
 17.336  17.336  17.460  17.460  17.460  17.479  17.479  17.479
 17.546  18.009  18.009  18.009  18.195  18.195  18.282  18.282
 18.282  19.157  19.157  19.157  19.489  19.770  19.770  19.770
 19.872  19.872  19.886  19.886  19.886  21.509  21.831  21.831
 23.216  23.216  23.216  23.831  23.831  23.831  23.904  23.904
 23.904  24.039  24.039  24.624  25.159  25.159  25.159  40.861
 40.861  40.861  41.049  80.521  91.233  91.233  91.233  91.277
 91.277  91.277  91.369  91.369  91.765  92.161  92.161  92.161
 --------------------------------------------------------------
 
          Ground-State Mulliken Net Atomic Charges

     Atom                 Charge (a.u.)    Spin (a.u.)
  --------------------------------------------------------
      1 B                     1.235700      -0.000000
      2 H                    -0.558925      -0.000000
      3 H                    -0.558925      -0.000000
      4 H                    -0.558925       0.000000
      5 H                    -0.558925       0.000000
  --------------------------------------------------------
  Sum of atomic charges =    -1.000000
  Sum of spin   charges =     0.000000

 -----------------------------------------------------------------
                    Cartesian Multipole Moments
 -----------------------------------------------------------------
    Charge (ESU x 10^10)
                -4.8032
    Dipole Moment (Debye)
         X       0.0000      Y       0.0000      Z       0.0000
       Tot       0.0000
    Quadrupole Moments (Debye-Ang)
        XX     -15.8691     XY       0.0000     YY     -15.8691
        XZ       0.0000     YZ       0.0000     ZZ     -15.8691
    Octopole Moments (Debye-Ang^2)
       XXX       0.0000    XXY       0.0000    XYY      -0.0000
       YYY       0.0000    XXZ       0.0000    XYZ      -2.2794
       YYZ       0.0000    XZZ       0.0000    YZZ       0.0000
       ZZZ       0.0000
    Hexadecapole Moments (Debye-Ang^3)
      XXXX     -47.2085   XXXY       0.0000   XXYY     -16.5857
      XYYY       0.0000   YYYY     -47.2085   XXXZ       0.0000
      XXYZ      -0.0000   XYYZ       0.0000   YYYZ       0.0000
      XXZZ     -16.5857   XYZZ       0.0000   YYZZ     -16.5857
      XZZZ       0.0000   YZZZ       0.0000   ZZZZ     -47.2085
 -----------------------------------------------------------------
Archival summary:
1\1\n0088.mhg0\SP\ProcedureUnspecified\BasisUnspecified\14(1-,1)\yhljason\MonSep1418:35:212020MonSep1418:35:212020\0\\#,ProcedureUnspecified,BasisUnspecified,\\-1,1\B\H,1,1.23391\H,1,1.23391,2,109.471\H,1,1.23391,2,109.471,3,120,0\H,1,1.23391,2,109.471,3,-120,0\\\@

 Total job time:  8618.10s(wall), 68870.10s(cpu) 
 Mon Sep 14 18:35:21 2020

        *************************************************************
        *                                                           *
        *  Thank you very much for using Q-Chem.  Have a nice day.  *
        *                                                           *
        *************************************************************


