Q-Chem Developer Version!
                  Welcome to Q-Chem
     A Quantum Leap Into The Future Of Chemistry


 Q-Chem 5.1, Q-Chem, Inc., Pleasanton, CA (2018)

 Yihan Shao,  Zhengting Gan,  E. Epifanovsky,  A. T. B. Gilbert,  M. Wormit,  
 J. Kussmann,  A. W. Lange,  A. Behn,  Jia Deng,  Xintian Feng,  D. Ghosh,  
 M. Goldey,  P. R. Horn,  L. D. Jacobson,  I. Kaliman,  T. Kus,  A. Landau,  
 Jie Liu,  E. I. Proynov,  R. M. Richard,  R. P. Steele,  E. J. Sundstrom,  
 H. L. Woodcock III,  P. M. Zimmerman,  D. Zuev,  B. Albrecht,  E. Alguire,  
 S. A. Baeppler,  D. Barton,  Z. Benda,  Y. A. Bernard,  E. J. Berquist,  
 K. B. Bravaya,  H. Burton,  D. Casanova,  Chun-Min Chang,  Yunqing Chen,  
 A. Chien,  K. D. Closser,  M. P. Coons,  S. Coriani,  S. Dasgupta,  
 A. L. Dempwolff,  M. Diedenhofen,  Hainam Do,  R. G. Edgar,  Po-Tung Fang,  
 S. Faraji,  S. Fatehi,  Qingguo Feng,  K. D. Fenk,  J. Fosso-Tande,  
 Qinghui Ge,  A. Ghysels,  G. Gidofalvi,  J. Gomes,  J. Gonthier,  A. Gunina,  
 D. Hait,  M. W. D. Hanson-Heine,  P. H. P. Harbach,  A. W. Hauser,  
 J. E. Herr,  E. G. Hohenstein,  Z. C. Holden,  Kerwin Hui,  B. C. Huynh,  
 T.-C. Jagau,  Hyunjun Ji,  B. Kaduk,  K. Khistyaev,  Jaehoon Kim,  
 P. Klunzinger,  K. Koh,  D. Kosenkov,  L. Koulias,  T. Kowalczyk,  
 C. M. Krauter,  A. Kunitsa,  Ka Un Lao,  A. Laurent,  K. V. Lawler,  
 Joonho Lee,  D. Lefrancois,  S. Lehtola,  D. S. Levine,  Yi-Pei Li,  
 You-Sheng Lin,  Fenglai Liu,  E. Livshits,  A. Luenser,  P. Manohar,  
 E. Mansoor,  S. F. Manzer,  Shan-Ping Mao,  Yuezhi Mao,  N. Mardirossian,  
 A. V. Marenich,  T. Markovich,  L. A. Martinez-Martinez,  S. A. Maurer,  
 N. J. Mayhall,  S. C. McKenzie,  J.-M. Mewes,  A. F. Morrison,  
 J. W. Mullinax,  K. Nanda,  T. S. Nguyen-Beck,  R. Olivares-Amaya,  
 J. A. Parkhill,  T. M. Perrine,  F. Plasser,  P. Pokhilko,  S. Prager,  
 A. Prociuk,  E. Ramos,  D. R. Rehn,  F. Rob,  M. Schneider,  N. Sergueev,  
 S. M. Sharada,  S. Sharma,  D. W. Small,  T. Stauch,  T. Stein,  
 Yu-Chuan Su,  A. J. W. Thom,  A. Tkatchenko,  T. Tsuchimochi,  N. M. Tubman,  
 L. Vogt,  M. L. Vidal,  O. Vydrov,  M. A. Watson,  J. Wenzel,  
 M. de Wergifosse,  T. A. Wesolowski,  A. White,  J. Witte,  A. Yamada,  
 Jun Yang,  K. Yao,  S. Yeganeh,  S. R. Yost,  Zhi-Qiang You,  A. Zech,  
 Igor Ying Zhang,  Xing Zhang,  Yan Zhao,  Ying Zhu,  B. R. Brooks,  
 G. K. L. Chan,  C. J. Cramer,  M. S. Gordon,  W. J. Hehre,  A. Klamt,  
 M. W. Schmidt,  C. D. Sherrill,  D. G. Truhlar,  A. Aspuru-Guzik,  R. Baer,  
 A. T. Bell,  N. A. Besley,  Jeng-Da Chai,  A. E. DePrince, III,  
 R. A. DiStasio Jr.,  A. Dreuw,  B. D. Dunietz,  T. R. Furlani,  
 Chao-Ping Hsu,  Yousung Jung,  Jing Kong,  D. S. Lambrecht,  WanZhen Liang,  
 C. Ochsenfeld,  V. A. Rassolov,  L. V. Slipchenko,  J. E. Subotnik,  
 T. Van Voorhis,  J. M. Herbert,  A. I. Krylov,  P. M. W. Gill,  M. Head-Gordon

 Contributors to earlier versions of Q-Chem not listed above: 
 R. D. Adamson,  B. Austin,  J. Baker,  G. J. O. Beran,  K. Brandhorst,  
 S. T. Brown,  E. F. C. Byrd,  A. K. Chakraborty,  C.-L. Cheng,  
 Siu Hung Chien,  D. M. Chipman,  D. L. Crittenden,  H. Dachsel,  
 R. J. Doerksen,  A. D. Dutoi,  L. Fusti-Molnar,  W. A. Goddard III,  
 A. Golubeva-Zadorozhnaya,  S. R. Gwaltney,  G. Hawkins,  A. Heyden,  
 S. Hirata,  G. Kedziora,  F. J. Keil,  C. Kelley,  Jihan Kim,  R. A. King,  
 R. Z. Khaliullin,  P. P. Korambath,  W. Kurlancheek,  A. M. Lee,  M. S. Lee,  
 S. V. Levchenko,  Ching Yeh Lin,  D. Liotard,  R. C. Lochan,  I. Lotan,  
 P. E. Maslen,  N. Nair,  D. P. O'Neill,  D. Neuhauser,  E. Neuscamman,  
 C. M. Oana,  R. Olson,  B. Peters,  R. Peverati,  P. A. Pieniazek,  
 Y. M. Rhee,  J. Ritchie,  M. A. Rohrdanz,  E. Rosta,  N. J. Russ,  
 H. F. Schaefer III,  N. E. Schultz,  N. Shenvi,  A. C. Simmonett,  A. Sodt,  
 D. Stuck,  K. S. Thanthiriwatte,  V. Vanovschi,  Tao Wang,  A. Warshel,  
 C. F. Williams,  Q. Wu,  X. Xu,  W. Zhang

 Please cite Q-Chem as follows:
 Y. Shao et al., Mol. Phys. 113, 184-215 (2015)
 DOI: 10.1080/00268976.2014.952696

 Q-Chem 5.1.1 for Intel X86 EM64T Linux

 Parts of Q-Chem use Armadillo 8.300.2 (Tropical Shenanigans).
 http://arma.sourceforge.net/

 Q-Chem begins on Mon Sep 14 16:47:08 2020  

Host: n0077.mhg0
0

     Scratch files written to /local/scratch/users/yhljason/CH3-_mBEEF_aug-pc-4.inp20200914161143//
Input Ideriv = 2
Curr. Ideriv = -1
Max.  Ideriv = 2
Input Ideriv = 1
Curr. Ideriv = 2
Max.  Ideriv = 1

Checking the input file for inconsistencies... 	...done.

--------------------------------------------------------------
User input:
--------------------------------------------------------------
$molecule
-1 1
C1         0.0000000000    0.0000002206    0.0716704292
H2         0.0000000000    1.0378118041   -0.2899567231
H3         0.8987709644   -0.5189060123   -0.2899568531
H4        -0.8987709644   -0.5189060124   -0.2899568531
$end

$rem
jobtype sp
method mBEEF
xc_grid 000099000590
basis aug-pc-4
max_scf_cycles 200
thresh 14
scf_convergence 8
scf_algorithm gdm
symmetry false
sym_ignore true
unrestricted true
gen_scfman true
internal_stability_iter 15
internal_stability_davidson_iter 200
mem_total 64000
mem_static 1500
n_frozen_core 0
$end


--------------------------------------------------------------
 ----------------------------------------------------------------
             Standard Nuclear Orientation (Angstroms)
    I     Atom           X                Y                Z
 ----------------------------------------------------------------
    1      C       0.0000000000     0.0000002206     0.0716704292
    2      H       0.0000000000     1.0378118041    -0.2899567231
    3      H       0.8987709644    -0.5189060123    -0.2899568531
    4      H      -0.8987709644    -0.5189060124    -0.2899568531
 ----------------------------------------------------------------
 Nuclear Repulsion Energy =     9.5502165999 hartrees
 There are        5 alpha and        5 beta electrons
 Requested basis set is aug-pc-4
 There are 105 shells and 409 basis functions

 Total QAlloc Memory Limit  64000 MB
 Mega-Array Size      1467 MB
 MEM_STATIC part      1500 MB

                       Distance Matrix (Angstroms)
             C (  1)   H (  2)   H (  3)
   H (  2)  1.099012
   H (  3)  1.099012  1.797543
   H (  4)  1.099012  1.797543  1.797542
 
 A cutoff of  1.0D-14 yielded   5538 shell pairs
 There are     84682 function pairs (    148786 Cartesian)
 
 -------------------------------------------------------
 OpenMP Integral Computing Module                       
 Release: version 1.0, May 2013, Q-Chem Inc. Pittsburgh 
 -------------------------------------------------------
 Integral Job Info:
 Integral job number is                      11
 Integral operator is                         1
 short-range coefficients                     0
 long-range coefficients              100000000
 Omega coefficients                           0
 if combine SR and LR in K                    0
 Integral screening is                        0
 Integral computing path is                   2
 max size of driver memory is           6400000
 size of driver memory is               5498286
 size of scratch memory is             29792225
 max col of scratch BK array             194481
 max len of scratch array in speh3         5572
 max len of scratch index in speh4           72
 max int batch size is                      520
 min int batch size is                       52
 fixed nKL is                                25
 max L of basis functions is                  5
 order of int derivative is                   0
 number of shells is                        105
 number of basis is                         541
 number of cartesian basis is               541
 number of contracted shell pairs          5538
 number of primitive shell pairs           9419
 maxK2 (contraction) of shell pair          121
 max number of K2 of shell pair               1
 max number of CS2 of shell pair            787
 max number of PS2 of shell pair            787
 mem total for path MDJ                  986672
 -------------------------------------------------------
 Smallest overlap matrix eigenvalue = 2.34E-07
 Linear dependence detected in AO basis
 Number of orthogonalized atomic orbitals = 405
 Maximum deviation from orthogonality = 4.384E-10

 Scale SEOQF with 1.000000e-01/1.000000e-01/1.000000e-01

 Standard Electronic Orientation quadrupole field applied
 Nucleus-field energy     =     0.0000000001 hartrees
 Guess from superposition of atomic densities
 Warning:  Energy on first SCF cycle will be non-variational
 SAD guess density has 9.000000 electrons

 -----------------------------------------------------------------------
  General SCF calculation program by
  Eric Jon Sundstrom, Paul Horn, Yuezhi Mao, Dmitri Zuev, Alec White,
  David Stuck, Shaama M.S., Shane Yost, Joonho Lee, David Small,
  Daniel Levine, Susi Lehtola, Hugh Burton, Evgeny Epifanovsky
 -----------------------------------------------------------------------
 Exchange:  mBEEF      Correlation:  PBEsol
 Using Euler-Maclaurin-Lebedev (99,590) quadrature formula
Running Object-Oriented UKS (UHF)
performing a single roothaan step with Fock from read density so that orbitals are available to all algorithms
energy of the guess density (C=0) -39.943002094422
We will preform up to 15 macro iterations over saddle points until a stable solution is found
Energy prior to optimization (guess energy) = -39.852318493890
Begin Timing: Total SCF Calculation
Begin Timing: SCF Single Stationary Point Calculation
begin iterations for algorithm: GDM          
the SCF tolerance is set to 1.00e-08
    1     -39.8523184939      3.96e-01     00000  Descent step
    2     -40.0425408877      1.20e-01     00000  Dog-leg BFGS step
    3     -40.0804820443      8.04e-02     00000  Normal BFGS step
    4     -40.0762783099      1.37e-01     00000 Line search: overstep
    5     -40.0858892036      3.27e-02     00000  Normal BFGS step
    6     -40.0875907147      9.76e-03     00000  Normal BFGS step
    7     -40.0876919386      2.69e-03     00000  Normal BFGS step
    8     -40.0877161560      8.11e-04     00000  Normal BFGS step
    9     -40.0877219816      6.28e-04     00000  Normal BFGS step
   10     -40.0877233623      4.47e-04     00000  Normal BFGS step
   11     -40.0877242535      2.11e-04     00000  Normal BFGS step
   12     -40.0877246668      1.17e-04     00000  Normal BFGS step
   13     -40.0877247542      2.16e-05     00000  Normal BFGS step
   14     -40.0877247582      2.27e-06     00000  Normal BFGS step
   15     -40.0877247582      3.87e-07     00000  Normal BFGS step
   16     -40.0877247582      1.82e-07     00000  Normal BFGS step
   17     -40.0877247582      1.03e-07     00000  Normal BFGS step
   18     -40.0877247582      4.11e-08     00000  Normal BFGS step
   19     -40.0877247582      8.32e-09     00000 Convergence criterion met
Timing for Single Stationary Point: 795.00s (wall), 6291.13s (cpu)
Begin Timing: Stability
===================================================
Beginning Test for Internal Stability
===================================================
generating davidson guess vectors based on koopmans excitations
    1      4.00e-01     00000 Davidson Iteration
    2      1.63e-01     00000 Davidson Iteration
    3      8.57e-02     00000 Davidson Iteration
    4      5.41e-02     00000 Davidson Iteration
    5      7.67e-03     00000 Davidson Iteration
    6      4.47e-03     00000 Davidson Iteration
    7      4.41e-03     00000 Davidson Iteration
    8      1.59e-03     00000 Davidson Iteration
    9      3.90e-04     00000 Davidson Iteration
   10      1.09e-04     00000 Davidson Iteration
   11      2.83e-05     00000 Davidson Converged
converged_eigenvalues
  -0.0006
   0.0203
Threshold for negative eigenvalues: -1.0e-05
solution was a saddle point (unstable)
displacing from saddle point as requested
performing a line search along the lowest hessian eigenvector after a small displacement (1E-3) to give a non-zero gradient along this direction 
===================================================
End Test for Internal Stability
===================================================
Timing for Internal Stability: 4288.00s (wall), 34068.92s (cpu)
completed scf stability macro iteration 1
beginning next scf after displacing from saddle point
Begin Timing: SCF Single Stationary Point Calculation
begin iterations for algorithm: GDM          
the SCF tolerance is set to 1.00e-08
    1     -40.0877250016      5.84e-04     00000  Normal BFGS step
    2     -40.0877242481      1.20e-03     00000 Line search: overstep
    3     -40.0877251803      1.58e-04     00000  Normal BFGS step
    4     -40.0877252815      7.97e-05     00000  Normal BFGS step
    5     -40.0877253016      5.58e-05     00000  Normal BFGS step
    6     -40.0877253138      6.08e-05     00000  Normal BFGS step
    7     -40.0877253373      7.85e-05     00000  Normal BFGS step
    8     -40.0877253884      1.06e-04     00000  Normal BFGS step
    9     -40.0877254965      1.61e-04     00000  Normal BFGS step
   10     -40.0877257143      3.31e-04     00000  Normal BFGS step
   11     -40.0877259346      4.57e-04     00000  Normal BFGS step
   12     -40.0877264086      3.32e-04     00000  Normal BFGS step
   13     -40.0877268593      1.79e-04     00000  Normal BFGS step
   14     -40.0877269740      1.42e-04     00000  Normal BFGS step
   15     -40.0877270245      8.65e-05     00000  Normal BFGS step
   16     -40.0877270514      6.21e-05     00000  Normal BFGS step
   17     -40.0877270683      3.83e-05     00000  Normal BFGS step
   18     -40.0877270749      3.07e-05     00000  Normal BFGS step
   19     -40.0877270804      1.21e-05     00000  Normal BFGS step
   20     -40.0877270813      3.53e-06     00000  Normal BFGS step
   21     -40.0877270814      3.41e-06     00000  Normal BFGS step
   22     -40.0877270814      3.94e-06     00000  Normal BFGS step
   23     -40.0877270814      3.01e-07     00000  Normal BFGS step
   24     -40.0877270814      1.14e-07     00000  Normal BFGS step
   25     -40.0877270814      1.32e-08     00000  Normal BFGS step
   26     -40.0877270814      3.32e-09     00000 Convergence criterion met
Timing for Single Stationary Point: 1044.00s (wall), 8254.84s (cpu)
Begin Timing: Stability
===================================================
Beginning Test for Internal Stability
===================================================
generating davidson guess vectors based on koopmans excitations
    1      3.94e-01     00000 Davidson Iteration
    2      1.25e-01     00000 Davidson Iteration
    3      5.66e-02     00000 Davidson Iteration
    4      3.53e-02     00000 Davidson Iteration
    5      1.27e-02     00000 Davidson Iteration
    6      5.81e-03     00000 Davidson Iteration
    7      1.47e-03     00000 Davidson Iteration
    8      5.89e-04     00000 Davidson Iteration
    9      1.72e-04     00000 Davidson Iteration
   10      8.84e-05     00000 Davidson Iteration
   11      1.81e-05     00000 Davidson Converged
converged_eigenvalues
   0.0033
   0.0165
Threshold for negative eigenvalues: -1.0e-05
solution was a local minimum (stable)
===================================================
End Test for Internal Stability
===================================================
Our SCF solution is stable!
Timing for Total SCF: 10241.00s (wall), 81306.45s (cpu)
 Total energy in the final basis set =      -40.0877270814
<S^2> =          0.018223306
    ==================================================
              The end of Object-Oriented SCFman       
    ==================================================
 
 --------------------------------------------------------------
 
                    Orbital Energies (a.u.)
 --------------------------------------------------------------
 
 Alpha MOs
 -- Occupied --
 -9.771  -0.390  -0.126  -0.126   0.055
 -- Virtual --
  0.070   0.083   0.084   0.088   0.092   0.092   0.118   0.166
  0.166   0.170   0.171   0.172   0.177   0.192   0.193   0.193
  0.203   0.207   0.207   0.212   0.212   0.235   0.268   0.293
  0.293   0.305   0.307   0.317   0.318   0.318   0.334   0.335
  0.343   0.343   0.345   0.345   0.350   0.355   0.355   0.367
  0.385   0.411   0.411   0.413   0.416   0.416   0.437   0.454
  0.461   0.461   0.474   0.474   0.487   0.496   0.496   0.507
  0.507   0.512   0.531   0.533   0.538   0.538   0.546   0.547
  0.553   0.569   0.569   0.586   0.593   0.593   0.594   0.605
  0.605   0.611   0.646   0.654   0.654   0.677   0.679   0.680
  0.680   0.701   0.701   0.730   0.733   0.733   0.756   0.794
  0.794   0.807   0.810   0.810   0.811   0.828   0.828   0.829
  0.859   0.866   0.866   0.891   0.891   0.897   0.897   0.908
  0.911   0.911   0.915   0.918   0.918   0.949   0.951   0.951
  0.959   0.976   0.977   0.977   0.988   0.990   0.990   1.000
  1.021   1.021   1.036   1.044   1.044   1.054   1.054   1.060
  1.060   1.077   1.077   1.085   1.097   1.097   1.126   1.139
  1.139   1.301   1.310   1.310   1.355   1.355   1.373   1.532
  1.548   1.548   1.572   1.587   1.587   1.611   1.624   1.624
  1.724   1.750   1.833   1.833   1.836   1.841   1.841   1.847
  1.883   1.883   1.898   1.898   2.074   2.074   2.096   2.177
  2.231   2.231   2.422   2.459   2.459   2.525   2.535   2.535
  2.617   2.695   2.743   2.743   2.744   2.758   2.758   2.957
  3.003   3.003   3.240   3.312   3.312   3.496   3.496   3.536
  3.644   3.701   3.729   3.729   3.776   3.776   3.986   4.051
  4.051   4.114   4.200   4.200   4.225   4.225   4.275   4.296
  4.382   4.480   4.480   4.525   4.525   4.645   4.673   4.673
  4.709   4.725   4.725   4.898   4.898   4.958   5.060   5.060
  5.154   5.213   5.339   5.339   5.372   5.372   5.499   5.547
  5.554   5.554   5.840   5.853   5.882   5.882   6.010   6.081
  6.081   6.339   6.391   6.391   6.439   6.439   6.441   6.677
  6.926   6.926   7.158   7.158   7.224   7.303   7.303   7.344
  7.456   7.456   7.477   8.304   8.304   8.338   8.993   9.039
  9.039   9.251   9.342   9.342   9.466   9.466   9.562   9.621
  9.625   9.625   9.657   9.799   9.799  10.011  10.011  10.106
 10.106  10.154  10.506  11.223  11.280  11.280  11.312  11.449
 11.450  11.569  11.569  11.688  11.745  11.745  11.778  11.915
 11.915  12.170  12.263  12.321  12.321  12.658  12.658  12.743
 12.743  12.855  12.871  12.952  12.995  12.995  13.154  13.154
 13.229  13.330  13.469  13.469  13.563  13.563  13.563  13.601
 13.601  13.715  14.085  14.086  14.141  14.177  14.177  14.342
 14.342  14.628  14.821  15.238  15.443  15.443  15.652  15.652
 16.110  16.540  16.565  16.565  16.712  16.712  17.353  17.720
 17.748  17.748  17.781  17.783  17.783  17.783  18.113  18.113
 18.227  18.250  18.250  19.128  19.295  19.295  19.622  19.622
 19.831  19.892  20.469  20.469  20.472  20.750  20.750  21.285
 21.395  21.395  21.637  22.146  22.146  23.798  23.904  23.904
 24.129  24.357  24.357  25.772  25.832  25.832  33.259  33.259
 33.633  34.631  34.631  41.215  41.215  41.563  76.342  91.031
 91.099  91.099  91.233  91.379  91.379  92.305  92.351  92.351
 
 Beta MOs
 -- Occupied --
 -9.770  -0.386  -0.125  -0.125   0.061
 -- Virtual --
  0.066   0.080   0.081   0.092   0.093   0.093   0.124   0.179
  0.179   0.183   0.183   0.184   0.200   0.210   0.211   0.212
  0.214   0.227   0.227   0.231   0.232   0.250   0.295   0.305
  0.305   0.337   0.340   0.340   0.342   0.355   0.361   0.361
  0.364   0.364   0.377   0.377   0.383   0.386   0.386   0.393
  0.419   0.430   0.445   0.446   0.458   0.458   0.470   0.483
  0.485   0.486   0.493   0.493   0.525   0.544   0.544   0.555
  0.562   0.562   0.568   0.571   0.571   0.571   0.573   0.599
  0.599   0.613   0.613   0.620   0.627   0.627   0.640   0.671
  0.671   0.672   0.676   0.693   0.694   0.714   0.714   0.714
  0.740   0.740   0.747   0.760   0.774   0.774   0.783   0.820
  0.820   0.860   0.860   0.860   0.863   0.866   0.866   0.869
  0.881   0.886   0.886   0.907   0.908   0.924   0.929   0.929
  0.930   0.930   0.932   0.970   0.971   0.982   1.005   1.006
  1.006   1.026   1.030   1.030   1.044   1.044   1.046   1.054
  1.064   1.067   1.067   1.077   1.083   1.084   1.103   1.103
  1.113   1.117   1.117   1.117   1.145   1.145   1.169   1.169
  1.170   1.323   1.323   1.327   1.384   1.384   1.411   1.554
  1.562   1.562   1.591   1.597   1.597   1.629   1.637   1.637
  1.734   1.754   1.845   1.845   1.851   1.851   1.855   1.868
  1.897   1.897   1.923   1.923   2.086   2.086   2.105   2.191
  2.236   2.236   2.439   2.469   2.469   2.535   2.541   2.541
  2.634   2.707   2.745   2.747   2.747   2.765   2.765   2.964
  3.007   3.007   3.254   3.316   3.316   3.496   3.496   3.536
  3.648   3.703   3.732   3.732   3.779   3.779   3.989   4.057
  4.057   4.120   4.207   4.207   4.231   4.231   4.278   4.297
  4.388   4.481   4.481   4.527   4.527   4.645   4.675   4.675
  4.709   4.726   4.726   4.898   4.898   4.970   5.062   5.062
  5.151   5.216   5.346   5.346   5.377   5.377   5.504   5.554
  5.560   5.560   5.839   5.866   5.893   5.893   6.015   6.082
  6.082   6.346   6.395   6.395   6.444   6.444   6.451   6.682
  6.936   6.936   7.160   7.160   7.227   7.301   7.301   7.349
  7.454   7.454   7.476   8.302   8.302   8.343   8.989   9.036
  9.036   9.244   9.335   9.335   9.461   9.461   9.556   9.615
  9.619   9.619   9.654   9.794   9.794  10.007  10.007  10.100
 10.100  10.152  10.496  11.228  11.272  11.272  11.323  11.459
 11.459  11.569  11.569  11.682  11.746  11.746  11.774  11.914
 11.914  12.175  12.257  12.321  12.321  12.650  12.651  12.742
 12.742  12.861  12.871  12.952  12.986  12.986  13.147  13.147
 13.219  13.321  13.466  13.466  13.560  13.565  13.565  13.593
 13.593  13.707  14.089  14.089  14.140  14.179  14.179  14.335
 14.335  14.632  14.812  15.219  15.436  15.436  15.645  15.645
 16.099  16.525  16.551  16.551  16.701  16.701  17.367  17.699
 17.728  17.728  17.761  17.763  17.764  17.764  18.090  18.090
 18.204  18.226  18.226  19.107  19.269  19.269  19.601  19.601
 19.822  19.871  20.445  20.450  20.450  20.730  20.730  21.265
 21.373  21.373  21.619  22.133  22.133  23.791  23.899  23.899
 24.124  24.351  24.351  25.766  25.825  25.825  33.258  33.258
 33.636  34.632  34.632  41.214  41.214  41.562  76.346  91.037
 91.106  91.106  91.240  91.385  91.385  92.314  92.361  92.361
 --------------------------------------------------------------
 
          Ground-State Mulliken Net Atomic Charges

     Atom                 Charge (a.u.)    Spin (a.u.)
  --------------------------------------------------------
      1 C                     0.392167       0.859670
      2 H                    -0.463156      -0.286022
      3 H                    -0.464505      -0.286824
      4 H                    -0.464505      -0.286824
  --------------------------------------------------------
  Sum of atomic charges =    -1.000000
  Sum of spin   charges =    -0.000000

 -----------------------------------------------------------------
                    Cartesian Multipole Moments
 -----------------------------------------------------------------
    Charge (ESU x 10^10)
                -4.8032
    Dipole Moment (Debye)
         X      -0.0000      Y       0.0001      Z      -0.9193
       Tot       0.9193
    Quadrupole Moments (Debye-Ang)
        XX     -15.9494     XY       0.0000     YY     -15.9493
        XZ       0.0000     YZ      -0.0004     ZZ     -29.6737
    Octopole Moments (Debye-Ang^2)
       XXX      -0.0000    XXY       0.0774    XYY      -0.0000
       YYY      -0.0756    XXZ       1.2954    XYZ       0.0000
       YYZ       1.2942    XZZ      -0.0000    YZZ       0.0012
       ZZZ       1.3312
    Hexadecapole Moments (Debye-Ang^3)
      XXXX     -91.1423   XXXY      -0.0000   XXYY     -30.3802
      XYYY      -0.0000   YYYY     -91.1385   XXXZ       0.0000
      XXYZ       0.2717   XYYZ       0.0000   YYYZ      -0.2781
      XXZZ     -75.3056   XYZZ       0.0000   YYZZ     -75.3043
      XZZZ       0.0000   YZZZ      -0.0048   ZZZZ    -360.1016
 -----------------------------------------------------------------
Archival summary:
1\1\n0077.mhg0\SP\ProcedureUnspecified\BasisUnspecified\13(1-,1)\yhljason\MonSep1419:39:042020MonSep1419:39:042020\0\\#,ProcedureUnspecified,BasisUnspecified,\\-1,1\C\H,1,1.09901\H,1,1.09901,2,109.73\H,1,1.09901,2,109.73,3,-120.64,0\\\@

 Total job time:  10316.07s(wall), 81874.52s(cpu) 
 Mon Sep 14 19:39:04 2020

        *************************************************************
        *                                                           *
        *  Thank you very much for using Q-Chem.  Have a nice day.  *
        *                                                           *
        *************************************************************


