Q-Chem Developer Version!
                  Welcome to Q-Chem
     A Quantum Leap Into The Future Of Chemistry


 Q-Chem 5.1, Q-Chem, Inc., Pleasanton, CA (2018)

 Yihan Shao,  Zhengting Gan,  E. Epifanovsky,  A. T. B. Gilbert,  M. Wormit,  
 J. Kussmann,  A. W. Lange,  A. Behn,  Jia Deng,  Xintian Feng,  D. Ghosh,  
 M. Goldey,  P. R. Horn,  L. D. Jacobson,  I. Kaliman,  T. Kus,  A. Landau,  
 Jie Liu,  E. I. Proynov,  R. M. Richard,  R. P. Steele,  E. J. Sundstrom,  
 H. L. Woodcock III,  P. M. Zimmerman,  D. Zuev,  B. Albrecht,  E. Alguire,  
 S. A. Baeppler,  D. Barton,  Z. Benda,  Y. A. Bernard,  E. J. Berquist,  
 K. B. Bravaya,  H. Burton,  D. Casanova,  Chun-Min Chang,  Yunqing Chen,  
 A. Chien,  K. D. Closser,  M. P. Coons,  S. Coriani,  S. Dasgupta,  
 A. L. Dempwolff,  M. Diedenhofen,  Hainam Do,  R. G. Edgar,  Po-Tung Fang,  
 S. Faraji,  S. Fatehi,  Qingguo Feng,  K. D. Fenk,  J. Fosso-Tande,  
 Qinghui Ge,  A. Ghysels,  G. Gidofalvi,  J. Gomes,  J. Gonthier,  A. Gunina,  
 D. Hait,  M. W. D. Hanson-Heine,  P. H. P. Harbach,  A. W. Hauser,  
 J. E. Herr,  E. G. Hohenstein,  Z. C. Holden,  Kerwin Hui,  B. C. Huynh,  
 T.-C. Jagau,  Hyunjun Ji,  B. Kaduk,  K. Khistyaev,  Jaehoon Kim,  
 P. Klunzinger,  K. Koh,  D. Kosenkov,  L. Koulias,  T. Kowalczyk,  
 C. M. Krauter,  A. Kunitsa,  Ka Un Lao,  A. Laurent,  K. V. Lawler,  
 Joonho Lee,  D. Lefrancois,  S. Lehtola,  D. S. Levine,  Yi-Pei Li,  
 You-Sheng Lin,  Fenglai Liu,  E. Livshits,  A. Luenser,  P. Manohar,  
 E. Mansoor,  S. F. Manzer,  Shan-Ping Mao,  Yuezhi Mao,  N. Mardirossian,  
 A. V. Marenich,  T. Markovich,  L. A. Martinez-Martinez,  S. A. Maurer,  
 N. J. Mayhall,  S. C. McKenzie,  J.-M. Mewes,  A. F. Morrison,  
 J. W. Mullinax,  K. Nanda,  T. S. Nguyen-Beck,  R. Olivares-Amaya,  
 J. A. Parkhill,  T. M. Perrine,  F. Plasser,  P. Pokhilko,  S. Prager,  
 A. Prociuk,  E. Ramos,  D. R. Rehn,  F. Rob,  M. Schneider,  N. Sergueev,  
 S. M. Sharada,  S. Sharma,  D. W. Small,  T. Stauch,  T. Stein,  
 Yu-Chuan Su,  A. J. W. Thom,  A. Tkatchenko,  T. Tsuchimochi,  N. M. Tubman,  
 L. Vogt,  M. L. Vidal,  O. Vydrov,  M. A. Watson,  J. Wenzel,  
 M. de Wergifosse,  T. A. Wesolowski,  A. White,  J. Witte,  A. Yamada,  
 Jun Yang,  K. Yao,  S. Yeganeh,  S. R. Yost,  Zhi-Qiang You,  A. Zech,  
 Igor Ying Zhang,  Xing Zhang,  Yan Zhao,  Ying Zhu,  B. R. Brooks,  
 G. K. L. Chan,  C. J. Cramer,  M. S. Gordon,  W. J. Hehre,  A. Klamt,  
 M. W. Schmidt,  C. D. Sherrill,  D. G. Truhlar,  A. Aspuru-Guzik,  R. Baer,  
 A. T. Bell,  N. A. Besley,  Jeng-Da Chai,  A. E. DePrince, III,  
 R. A. DiStasio Jr.,  A. Dreuw,  B. D. Dunietz,  T. R. Furlani,  
 Chao-Ping Hsu,  Yousung Jung,  Jing Kong,  D. S. Lambrecht,  WanZhen Liang,  
 C. Ochsenfeld,  V. A. Rassolov,  L. V. Slipchenko,  J. E. Subotnik,  
 T. Van Voorhis,  J. M. Herbert,  A. I. Krylov,  P. M. W. Gill,  M. Head-Gordon

 Contributors to earlier versions of Q-Chem not listed above: 
 R. D. Adamson,  B. Austin,  J. Baker,  G. J. O. Beran,  K. Brandhorst,  
 S. T. Brown,  E. F. C. Byrd,  A. K. Chakraborty,  C.-L. Cheng,  
 Siu Hung Chien,  D. M. Chipman,  D. L. Crittenden,  H. Dachsel,  
 R. J. Doerksen,  A. D. Dutoi,  L. Fusti-Molnar,  W. A. Goddard III,  
 A. Golubeva-Zadorozhnaya,  S. R. Gwaltney,  G. Hawkins,  A. Heyden,  
 S. Hirata,  G. Kedziora,  F. J. Keil,  C. Kelley,  Jihan Kim,  R. A. King,  
 R. Z. Khaliullin,  P. P. Korambath,  W. Kurlancheek,  A. M. Lee,  M. S. Lee,  
 S. V. Levchenko,  Ching Yeh Lin,  D. Liotard,  R. C. Lochan,  I. Lotan,  
 P. E. Maslen,  N. Nair,  D. P. O'Neill,  D. Neuhauser,  E. Neuscamman,  
 C. M. Oana,  R. Olson,  B. Peters,  R. Peverati,  P. A. Pieniazek,  
 Y. M. Rhee,  J. Ritchie,  M. A. Rohrdanz,  E. Rosta,  N. J. Russ,  
 H. F. Schaefer III,  N. E. Schultz,  N. Shenvi,  A. C. Simmonett,  A. Sodt,  
 D. Stuck,  K. S. Thanthiriwatte,  V. Vanovschi,  Tao Wang,  A. Warshel,  
 C. F. Williams,  Q. Wu,  X. Xu,  W. Zhang

 Please cite Q-Chem as follows:
 Y. Shao et al., Mol. Phys. 113, 184-215 (2015)
 DOI: 10.1080/00268976.2014.952696

 Q-Chem 5.1.1 for Intel X86 EM64T Linux

 Parts of Q-Chem use Armadillo 8.300.2 (Tropical Shenanigans).
 http://arma.sourceforge.net/

 Q-Chem begins on Mon Sep 14 17:33:56 2020  

Host: n0052.mhg0
0

     Scratch files written to /local/scratch/users/yhljason/NH2-_MGGA_MS2_aug-pc-4.inp20200914161144//
Input Ideriv = 2
Curr. Ideriv = -1
Max.  Ideriv = 2
Input Ideriv = 1
Curr. Ideriv = 2
Max.  Ideriv = 1

Checking the input file for inconsistencies... 	...done.

--------------------------------------------------------------
User input:
--------------------------------------------------------------
$molecule
-1 1
N         0.0000000000    0.0000000000    0.1307636080
H         0.0000000000    0.8003404806   -0.5152318040
H         0.0000000000   -0.8003404806   -0.5152318040
$end



$rem
jobtype sp
method MGGA_MS2
xc_grid 000099000590
basis aug-pc-4
max_scf_cycles 200
thresh 14
scf_convergence 8
scf_algorithm gdm
symmetry false
sym_ignore true
unrestricted true
gen_scfman true
internal_stability_iter 15
internal_stability_davidson_iter 200
mem_total 64000
mem_static 1500
n_frozen_core 0
$end


--------------------------------------------------------------
 ----------------------------------------------------------------
             Standard Nuclear Orientation (Angstroms)
    I     Atom           X                Y                Z
 ----------------------------------------------------------------
    1      N       0.0000000000     0.0000000000     0.1307636080
    2      H       0.0000000000     0.8003404806    -0.5152318040
    3      H       0.0000000000    -0.8003404806    -0.5152318040
 ----------------------------------------------------------------
 Nuclear Repulsion Energy =     7.5336396871 hartrees
 There are        5 alpha and        5 beta electrons
 Requested basis set is aug-pc-4
 There are 81 shells and 321 basis functions

 Total QAlloc Memory Limit  64000 MB
 Mega-Array Size      1467 MB
 MEM_STATIC part      1500 MB

                       Distance Matrix (Angstroms)
             N (  1)   H (  2)
   H (  2)  1.028521
   H (  3)  1.028521  1.600681
 
 A cutoff of  1.0D-14 yielded   3313 shell pairs
 There are     52429 function pairs (     93662 Cartesian)
 
 -------------------------------------------------------
 OpenMP Integral Computing Module                       
 Release: version 1.0, May 2013, Q-Chem Inc. Pittsburgh 
 -------------------------------------------------------
 Integral Job Info:
 Integral job number is                      11
 Integral operator is                         1
 short-range coefficients                     0
 long-range coefficients              100000000
 Omega coefficients                           0
 if combine SR and LR in K                    0
 Integral screening is                        0
 Integral computing path is                   2
 max size of driver memory is           6400000
 size of driver memory is               5498286
 size of scratch memory is             29792225
 max col of scratch BK array             194481
 max len of scratch array in speh3         5572
 max len of scratch index in speh4           72
 max int batch size is                      520
 min int batch size is                       52
 fixed nKL is                                25
 max L of basis functions is                  5
 order of int derivative is                   0
 number of shells is                         81
 number of basis is                         428
 number of cartesian basis is               428
 number of contracted shell pairs          3313
 number of primitive shell pairs           6025
 maxK2 (contraction) of shell pair          121
 max number of K2 of shell pair               1
 max number of CS2 of shell pair            445
 max number of PS2 of shell pair            445
 mem total for path MDJ                  900380
 -------------------------------------------------------
 Smallest overlap matrix eigenvalue = 2.62E-06

 Scale SEOQF with 1.000000e-01/1.000000e-01/1.000000e-01

 Standard Electronic Orientation quadrupole field applied
 Guess from superposition of atomic densities
 Warning:  Energy on first SCF cycle will be non-variational
 SAD guess density has 9.000000 electrons

 -----------------------------------------------------------------------
  General SCF calculation program by
  Eric Jon Sundstrom, Paul Horn, Yuezhi Mao, Dmitri Zuev, Alec White,
  David Stuck, Shaama M.S., Shane Yost, Joonho Lee, David Small,
  Daniel Levine, Susi Lehtola, Hugh Burton, Evgeny Epifanovsky
 -----------------------------------------------------------------------
 Exchange:  MGGA_MS2      Correlation:  regTPSS
 Using Euler-Maclaurin-Lebedev (99,590) quadrature formula
Running Object-Oriented UKS (UHF)
performing a single roothaan step with Fock from read density so that orbitals are available to all algorithms
energy of the guess density (C=0) -55.835541265848
We will preform up to 15 macro iterations over saddle points until a stable solution is found
Energy prior to optimization (guess energy) = -55.707024393210
Begin Timing: Total SCF Calculation
Begin Timing: SCF Single Stationary Point Calculation
begin iterations for algorithm: GDM          
the SCF tolerance is set to 1.00e-08
    1     -55.7070243932      2.70e-01     00000  Descent step
    2     -55.9012119140      1.41e-01     00000  Descent step
    3     -55.9055029041      1.49e-01     00000  Normal BFGS step
    4     -55.9207176307      1.46e-01     00000  Normal BFGS step
    5     -55.9471197222      5.91e-02     00000  Normal BFGS step
    6     -55.9499212993      1.40e-02     00000  Normal BFGS step
    7     -55.9501714241      9.67e-03     00000  Normal BFGS step
    8     -55.9502457691      4.91e-04     00000  Normal BFGS step
    9     -55.9502476514      2.47e-04     00000  Normal BFGS step
   10     -55.9502478883      4.18e-05     00000  Normal BFGS step
   11     -55.9502478957      1.43e-05     00000  Normal BFGS step
   12     -55.9502478962      1.53e-06     00000  Normal BFGS step
   13     -55.9502478963      3.84e-07     00000  Normal BFGS step
   14     -55.9502478963      3.89e-08     00000  Normal BFGS step
   15     -55.9502478963      5.31e-08     00000  Normal BFGS step
   16     -55.9502478963      9.78e-08     00000  Normal BFGS step
   17     -55.9502478963      8.55e-10     00000 Convergence criterion met
Timing for Single Stationary Point: 250.00s (wall), 1979.39s (cpu)
Begin Timing: Stability
===================================================
Beginning Test for Internal Stability
===================================================
generating davidson guess vectors based on koopmans excitations
    1      4.28e-01     00000 Davidson Iteration
    2      2.56e-02     00000 Davidson Iteration
    3      1.61e-02     00000 Davidson Iteration
    4      5.21e-03     00000 Davidson Iteration
    5      1.20e-03     00000 Davidson Iteration
    6      3.57e-04     00000 Davidson Iteration
    7      9.75e-05     00000 Davidson Iteration
    8      4.61e-05     00000 Davidson Converged
converged_eigenvalues
   0.0214
   0.0143
Threshold for negative eigenvalues: -1.0e-05
solution was a local minimum (stable)
===================================================
End Test for Internal Stability
===================================================
Our SCF solution is stable!
Timing for Total SCF: 1279.00s (wall), 10173.94s (cpu)
 Total energy in the final basis set =      -55.9502478963
<S^2> =          0.000000000
    ==================================================
              The end of Object-Oriented SCFman       
    ==================================================
 
 --------------------------------------------------------------
 
                    Orbital Energies (a.u.)
 --------------------------------------------------------------
 
 Alpha MOs
 -- Occupied --
-13.811  -0.481  -0.133   0.006   0.078
 -- Virtual --
  0.098   0.104   0.130   0.131   0.148   0.175   0.191   0.194
  0.202   0.205   0.205   0.229   0.266   0.275   0.293   0.295
  0.296   0.301   0.317   0.317   0.333   0.334   0.346   0.353
  0.354   0.364   0.379   0.391   0.396   0.398   0.418   0.452
  0.453   0.462   0.462   0.471   0.515   0.516   0.519   0.526
  0.547   0.551   0.553   0.562   0.563   0.574   0.586   0.596
  0.598   0.606   0.636   0.640   0.646   0.650   0.667   0.676
  0.682   0.702   0.705   0.708   0.714   0.718   0.726   0.738
  0.749   0.787   0.788   0.813   0.824   0.832   0.835   0.842
  0.853   0.869   0.879   0.889   0.898   0.899   0.913   0.933
  0.945   0.974   0.981   0.983   0.995   0.997   1.003   1.004
  1.014   1.025   1.045   1.053   1.083   1.086   1.111   1.112
  1.117   1.118   1.154   1.162   1.163   1.169   1.185   1.186
  1.203   1.206   1.234   1.245   1.265   1.285   1.429   1.468
  1.485   1.582   1.641   1.661   1.668   1.763   1.772   1.792
  1.811   1.867   1.870   1.885   1.896   1.918   1.944   1.948
  2.054   2.146   2.183   2.186   2.211   2.349   2.421   2.537
  2.673   2.675   2.775   2.786   2.837   2.939   3.000   3.057
  3.173   3.265   3.347   3.350   3.448   3.508   3.521   3.722
  3.735   3.735   3.851   3.879   3.910   3.918   3.955   3.957
  4.067   4.145   4.206   4.215   4.254   4.322   4.493   4.507
  4.517   4.579   4.669   4.749   4.853   4.907   4.950   5.085
  5.402   5.512   5.566   5.610   5.643   5.749   5.780   6.115
  6.143   6.233   6.336   6.404   6.409   6.532   6.809   6.852
  6.864   6.982   6.991   7.042   7.152   7.220   7.280   7.554
  7.920   8.099   8.162   8.266   8.471   8.708   9.087   9.102
  9.120   9.126   9.355   9.538   9.663   9.760   9.769   9.906
 10.111  10.185  10.455  10.463  10.574  10.715  10.826  10.888
 12.146  12.176  12.178  12.214  12.312  12.333  12.340  12.408
 12.416  12.419  12.564  12.587  12.623  12.685  13.141  13.439
 13.483  13.506  13.521  13.595  13.630  13.711  13.743  13.798
 14.491  14.501  14.984  15.096  15.119  15.121  15.767  15.897
 15.980  16.096  16.264  16.337  16.343  16.457  16.723  16.975
 17.244  17.348  17.412  17.809  17.848  17.889  18.081  18.150
 18.180  18.195  18.256  18.433  18.468  18.642  18.895  18.895
 19.126  19.259  20.218  20.467  20.841  20.948  21.906  21.927
 21.946  22.290  22.346  23.326  24.521  24.562  24.674  24.740
 25.000  26.550  26.709  26.839  28.649  29.147  42.415  42.520
 48.662  48.754  48.867  49.104  49.992  92.746  92.789  92.843
 92.856  94.552  94.651 105.655
 
 Beta MOs
 -- Occupied --
-13.811  -0.481  -0.133   0.006   0.078
 -- Virtual --
  0.098   0.104   0.130   0.131   0.148   0.175   0.191   0.194
  0.202   0.205   0.205   0.229   0.266   0.275   0.293   0.295
  0.296   0.301   0.317   0.317   0.333   0.334   0.346   0.353
  0.354   0.364   0.379   0.391   0.396   0.398   0.418   0.452
  0.453   0.462   0.462   0.471   0.515   0.516   0.519   0.526
  0.547   0.551   0.553   0.562   0.563   0.574   0.586   0.596
  0.598   0.606   0.636   0.640   0.646   0.650   0.667   0.676
  0.682   0.702   0.705   0.708   0.714   0.718   0.726   0.738
  0.749   0.787   0.788   0.813   0.824   0.832   0.835   0.842
  0.853   0.869   0.879   0.889   0.898   0.899   0.913   0.933
  0.945   0.974   0.981   0.983   0.995   0.997   1.003   1.004
  1.014   1.025   1.045   1.053   1.083   1.086   1.111   1.112
  1.117   1.118   1.154   1.162   1.163   1.169   1.185   1.186
  1.203   1.206   1.234   1.245   1.265   1.285   1.429   1.468
  1.485   1.582   1.641   1.661   1.668   1.763   1.772   1.792
  1.811   1.867   1.870   1.885   1.896   1.918   1.944   1.948
  2.054   2.146   2.183   2.186   2.211   2.349   2.421   2.537
  2.673   2.675   2.775   2.786   2.837   2.939   3.000   3.057
  3.173   3.265   3.347   3.350   3.448   3.508   3.521   3.722
  3.735   3.735   3.851   3.879   3.910   3.918   3.955   3.957
  4.067   4.145   4.206   4.215   4.254   4.322   4.493   4.507
  4.517   4.579   4.669   4.749   4.853   4.907   4.950   5.085
  5.402   5.512   5.566   5.610   5.643   5.749   5.780   6.115
  6.143   6.233   6.336   6.404   6.409   6.532   6.809   6.852
  6.864   6.982   6.991   7.042   7.152   7.220   7.280   7.554
  7.920   8.099   8.162   8.266   8.471   8.708   9.087   9.102
  9.120   9.126   9.355   9.538   9.663   9.760   9.769   9.906
 10.111  10.185  10.455  10.463  10.574  10.715  10.826  10.888
 12.146  12.176  12.178  12.214  12.312  12.333  12.340  12.408
 12.416  12.419  12.564  12.587  12.623  12.685  13.141  13.439
 13.483  13.506  13.521  13.595  13.630  13.711  13.743  13.798
 14.491  14.501  14.984  15.096  15.119  15.121  15.767  15.897
 15.980  16.096  16.264  16.337  16.343  16.457  16.723  16.975
 17.244  17.348  17.412  17.809  17.848  17.889  18.081  18.150
 18.180  18.195  18.256  18.433  18.468  18.642  18.895  18.895
 19.126  19.259  20.218  20.467  20.841  20.948  21.906  21.927
 21.946  22.290  22.346  23.326  24.521  24.562  24.674  24.740
 25.000  26.550  26.709  26.839  28.649  29.147  42.415  42.520
 48.662  48.754  48.867  49.104  49.992  92.746  92.789  92.843
 92.856  94.552  94.651 105.655
 --------------------------------------------------------------
 
          Ground-State Mulliken Net Atomic Charges

     Atom                 Charge (a.u.)    Spin (a.u.)
  --------------------------------------------------------
      1 N                    -0.632024      -0.000000
      2 H                    -0.183988       0.000000
      3 H                    -0.183988       0.000000
  --------------------------------------------------------
  Sum of atomic charges =    -1.000000
  Sum of spin   charges =     0.000000

 -----------------------------------------------------------------
                    Cartesian Multipole Moments
 -----------------------------------------------------------------
    Charge (ESU x 10^10)
                -4.8032
    Dipole Moment (Debye)
         X       0.0000      Y      -0.0000      Z      -1.3869
       Tot       1.3869
    Quadrupole Moments (Debye-Ang)
        XX     -20.4437     XY       0.0000     YY     -11.4203
        XZ      -0.0000     YZ      -0.0000     ZZ     -13.8907
    Octopole Moments (Debye-Ang^2)
       XXX       0.0000    XXY      -0.0000    XYY       0.0000
       YYY      -0.0000    XXZ      -0.6978    XYZ       0.0000
       YYZ      -0.5204    XZZ       0.0000    YZZ      -0.0000
       ZZZ      -0.8456
    Hexadecapole Moments (Debye-Ang^3)
      XXXX    -145.4204   XXXY       0.0000   XXYY     -30.4976
      XYYY       0.0000   YYYY     -41.2169   XXXZ      -0.0000
      XXYZ       0.0000   XYYZ      -0.0000   YYYZ      -0.0000
      XXZZ     -31.5962   XYZZ       0.0000   YYZZ     -15.1078
      XZZZ      -0.0000   YZZZ      -0.0000   ZZZZ     -49.0329
 -----------------------------------------------------------------
Archival summary:
1\1\n0052.mhg0\SP\ProcedureUnspecified\BasisUnspecified\12(1-,1)\yhljason\MonSep1417:55:442020MonSep1417:55:442020\0\\#,ProcedureUnspecified,BasisUnspecified,\\-1,1\N\H,1,1.02852\H,1,1.02852,2,102.182\\\@

 Total job time:  1307.36s(wall), 10378.89s(cpu) 
 Mon Sep 14 17:55:44 2020

        *************************************************************
        *                                                           *
        *  Thank you very much for using Q-Chem.  Have a nice day.  *
        *                                                           *
        *************************************************************


