Q-Chem Developer Version!
                  Welcome to Q-Chem
     A Quantum Leap Into The Future Of Chemistry


 Q-Chem 5.1, Q-Chem, Inc., Pleasanton, CA (2018)

 Yihan Shao,  Zhengting Gan,  E. Epifanovsky,  A. T. B. Gilbert,  M. Wormit,  
 J. Kussmann,  A. W. Lange,  A. Behn,  Jia Deng,  Xintian Feng,  D. Ghosh,  
 M. Goldey,  P. R. Horn,  L. D. Jacobson,  I. Kaliman,  T. Kus,  A. Landau,  
 Jie Liu,  E. I. Proynov,  R. M. Richard,  R. P. Steele,  E. J. Sundstrom,  
 H. L. Woodcock III,  P. M. Zimmerman,  D. Zuev,  B. Albrecht,  E. Alguire,  
 S. A. Baeppler,  D. Barton,  Z. Benda,  Y. A. Bernard,  E. J. Berquist,  
 K. B. Bravaya,  H. Burton,  D. Casanova,  Chun-Min Chang,  Yunqing Chen,  
 A. Chien,  K. D. Closser,  M. P. Coons,  S. Coriani,  S. Dasgupta,  
 A. L. Dempwolff,  M. Diedenhofen,  Hainam Do,  R. G. Edgar,  Po-Tung Fang,  
 S. Faraji,  S. Fatehi,  Qingguo Feng,  K. D. Fenk,  J. Fosso-Tande,  
 Qinghui Ge,  A. Ghysels,  G. Gidofalvi,  J. Gomes,  J. Gonthier,  A. Gunina,  
 D. Hait,  M. W. D. Hanson-Heine,  P. H. P. Harbach,  A. W. Hauser,  
 J. E. Herr,  E. G. Hohenstein,  Z. C. Holden,  Kerwin Hui,  B. C. Huynh,  
 T.-C. Jagau,  Hyunjun Ji,  B. Kaduk,  K. Khistyaev,  Jaehoon Kim,  
 P. Klunzinger,  K. Koh,  D. Kosenkov,  L. Koulias,  T. Kowalczyk,  
 C. M. Krauter,  A. Kunitsa,  Ka Un Lao,  A. Laurent,  K. V. Lawler,  
 Joonho Lee,  D. Lefrancois,  S. Lehtola,  D. S. Levine,  Yi-Pei Li,  
 You-Sheng Lin,  Fenglai Liu,  E. Livshits,  A. Luenser,  P. Manohar,  
 E. Mansoor,  S. F. Manzer,  Shan-Ping Mao,  Yuezhi Mao,  N. Mardirossian,  
 A. V. Marenich,  T. Markovich,  L. A. Martinez-Martinez,  S. A. Maurer,  
 N. J. Mayhall,  S. C. McKenzie,  J.-M. Mewes,  A. F. Morrison,  
 J. W. Mullinax,  K. Nanda,  T. S. Nguyen-Beck,  R. Olivares-Amaya,  
 J. A. Parkhill,  T. M. Perrine,  F. Plasser,  P. Pokhilko,  S. Prager,  
 A. Prociuk,  E. Ramos,  D. R. Rehn,  F. Rob,  M. Schneider,  N. Sergueev,  
 S. M. Sharada,  S. Sharma,  D. W. Small,  T. Stauch,  T. Stein,  
 Yu-Chuan Su,  A. J. W. Thom,  A. Tkatchenko,  T. Tsuchimochi,  N. M. Tubman,  
 L. Vogt,  M. L. Vidal,  O. Vydrov,  M. A. Watson,  J. Wenzel,  
 M. de Wergifosse,  T. A. Wesolowski,  A. White,  J. Witte,  A. Yamada,  
 Jun Yang,  K. Yao,  S. Yeganeh,  S. R. Yost,  Zhi-Qiang You,  A. Zech,  
 Igor Ying Zhang,  Xing Zhang,  Yan Zhao,  Ying Zhu,  B. R. Brooks,  
 G. K. L. Chan,  C. J. Cramer,  M. S. Gordon,  W. J. Hehre,  A. Klamt,  
 M. W. Schmidt,  C. D. Sherrill,  D. G. Truhlar,  A. Aspuru-Guzik,  R. Baer,  
 A. T. Bell,  N. A. Besley,  Jeng-Da Chai,  A. E. DePrince, III,  
 R. A. DiStasio Jr.,  A. Dreuw,  B. D. Dunietz,  T. R. Furlani,  
 Chao-Ping Hsu,  Yousung Jung,  Jing Kong,  D. S. Lambrecht,  WanZhen Liang,  
 C. Ochsenfeld,  V. A. Rassolov,  L. V. Slipchenko,  J. E. Subotnik,  
 T. Van Voorhis,  J. M. Herbert,  A. I. Krylov,  P. M. W. Gill,  M. Head-Gordon

 Contributors to earlier versions of Q-Chem not listed above: 
 R. D. Adamson,  B. Austin,  J. Baker,  G. J. O. Beran,  K. Brandhorst,  
 S. T. Brown,  E. F. C. Byrd,  A. K. Chakraborty,  C.-L. Cheng,  
 Siu Hung Chien,  D. M. Chipman,  D. L. Crittenden,  H. Dachsel,  
 R. J. Doerksen,  A. D. Dutoi,  L. Fusti-Molnar,  W. A. Goddard III,  
 A. Golubeva-Zadorozhnaya,  S. R. Gwaltney,  G. Hawkins,  A. Heyden,  
 S. Hirata,  G. Kedziora,  F. J. Keil,  C. Kelley,  Jihan Kim,  R. A. King,  
 R. Z. Khaliullin,  P. P. Korambath,  W. Kurlancheek,  A. M. Lee,  M. S. Lee,  
 S. V. Levchenko,  Ching Yeh Lin,  D. Liotard,  R. C. Lochan,  I. Lotan,  
 P. E. Maslen,  N. Nair,  D. P. O'Neill,  D. Neuhauser,  E. Neuscamman,  
 C. M. Oana,  R. Olson,  B. Peters,  R. Peverati,  P. A. Pieniazek,  
 Y. M. Rhee,  J. Ritchie,  M. A. Rohrdanz,  E. Rosta,  N. J. Russ,  
 H. F. Schaefer III,  N. E. Schultz,  N. Shenvi,  A. C. Simmonett,  A. Sodt,  
 D. Stuck,  K. S. Thanthiriwatte,  V. Vanovschi,  Tao Wang,  A. Warshel,  
 C. F. Williams,  Q. Wu,  X. Xu,  W. Zhang

 Please cite Q-Chem as follows:
 Y. Shao et al., Mol. Phys. 113, 184-215 (2015)
 DOI: 10.1080/00268976.2014.952696

 Q-Chem 5.1.1 for Intel X86 EM64T Linux

 Parts of Q-Chem use Armadillo 8.300.2 (Tropical Shenanigans).
 http://arma.sourceforge.net/

 Q-Chem begins on Mon Sep 14 17:43:32 2020  

Host: n0075.mhg0
0

     Scratch files written to /local/scratch/users/yhljason/NH2-_N12_aug-pc-4.inp20200914161144//
Input Ideriv = 2
Curr. Ideriv = -1
Max.  Ideriv = 2

Checking the input file for inconsistencies... 	...done.

--------------------------------------------------------------
User input:
--------------------------------------------------------------
$molecule
-1 1
N         0.0000000000    0.0000000000    0.1307636080
H         0.0000000000    0.8003404806   -0.5152318040
H         0.0000000000   -0.8003404806   -0.5152318040
$end



$rem
jobtype sp
method N12
xc_grid 000099000590
basis aug-pc-4
max_scf_cycles 200
thresh 14
scf_convergence 8
scf_algorithm gdm
symmetry false
sym_ignore true
unrestricted true
gen_scfman true
internal_stability_iter 15
internal_stability_davidson_iter 200
mem_total 64000
mem_static 1500
n_frozen_core 0
$end


--------------------------------------------------------------
 ----------------------------------------------------------------
             Standard Nuclear Orientation (Angstroms)
    I     Atom           X                Y                Z
 ----------------------------------------------------------------
    1      N       0.0000000000     0.0000000000     0.1307636080
    2      H       0.0000000000     0.8003404806    -0.5152318040
    3      H       0.0000000000    -0.8003404806    -0.5152318040
 ----------------------------------------------------------------
 Nuclear Repulsion Energy =     7.5336396871 hartrees
 There are        5 alpha and        5 beta electrons
 Requested basis set is aug-pc-4
 There are 81 shells and 321 basis functions

 Total QAlloc Memory Limit  64000 MB
 Mega-Array Size      1467 MB
 MEM_STATIC part      1500 MB

                       Distance Matrix (Angstroms)
             N (  1)   H (  2)
   H (  2)  1.028521
   H (  3)  1.028521  1.600681
 
 A cutoff of  1.0D-14 yielded   3313 shell pairs
 There are     52429 function pairs (     93662 Cartesian)
 
 -------------------------------------------------------
 OpenMP Integral Computing Module                       
 Release: version 1.0, May 2013, Q-Chem Inc. Pittsburgh 
 -------------------------------------------------------
 Integral Job Info:
 Integral job number is                      11
 Integral operator is                         1
 short-range coefficients                     0
 long-range coefficients              100000000
 Omega coefficients                           0
 if combine SR and LR in K                    0
 Integral screening is                        0
 Integral computing path is                   2
 max size of driver memory is           6400000
 size of driver memory is               5498286
 size of scratch memory is             29792225
 max col of scratch BK array             194481
 max len of scratch array in speh3         5572
 max len of scratch index in speh4           72
 max int batch size is                      520
 min int batch size is                       52
 fixed nKL is                                25
 max L of basis functions is                  5
 order of int derivative is                   0
 number of shells is                         81
 number of basis is                         428
 number of cartesian basis is               428
 number of contracted shell pairs          3313
 number of primitive shell pairs           6025
 maxK2 (contraction) of shell pair          121
 max number of K2 of shell pair               1
 max number of CS2 of shell pair            445
 max number of PS2 of shell pair            445
 mem total for path MDJ                  900380
 -------------------------------------------------------
 Smallest overlap matrix eigenvalue = 2.62E-06

 Scale SEOQF with 1.000000e-01/1.000000e-01/1.000000e-01

 Standard Electronic Orientation quadrupole field applied
 Guess from superposition of atomic densities
 Warning:  Energy on first SCF cycle will be non-variational
 SAD guess density has 9.000000 electrons

 -----------------------------------------------------------------------
  General SCF calculation program by
  Eric Jon Sundstrom, Paul Horn, Yuezhi Mao, Dmitri Zuev, Alec White,
  David Stuck, Shaama M.S., Shane Yost, Joonho Lee, David Small,
  Daniel Levine, Susi Lehtola, Hugh Burton, Evgeny Epifanovsky
 -----------------------------------------------------------------------
 Exchange:  N12      Correlation:  N12
 Using Euler-Maclaurin-Lebedev (99,590) quadrature formula
Running Object-Oriented UKS (UHF)
performing a single roothaan step with Fock from read density so that orbitals are available to all algorithms
energy of the guess density (C=0) -55.795278421493
We will preform up to 15 macro iterations over saddle points until a stable solution is found
Energy prior to optimization (guess energy) = -55.599579882988
Begin Timing: Total SCF Calculation
Begin Timing: SCF Single Stationary Point Calculation
begin iterations for algorithm: GDM          
the SCF tolerance is set to 1.00e-08
    1     -55.5995798830      3.31e-01     00000  Descent step
    2     -55.8418577843      1.28e-01     00000  Descent step
    3     -55.8881715328      9.18e-02     00000  Normal BFGS step
    4     -55.8737676777      1.43e-01     00000 Line search: overstep
    5     -55.8968199011      2.63e-02     00000  Normal BFGS step
    6     -55.8988139577      5.37e-03     00000  Normal BFGS step
    7     -55.8989188819      1.63e-03     00000  Normal BFGS step
    8     -55.8989371160      1.46e-03     00000  Normal BFGS step
    9     -55.8989400447      2.80e-04     00000  Normal BFGS step
   10     -55.8989404192      1.61e-04     00000  Normal BFGS step
   11     -55.8989404969      6.48e-05     00000  Normal BFGS step
   12     -55.8989405082      1.54e-05     00000  Normal BFGS step
   13     -55.8989405092      2.54e-06     00000  Normal BFGS step
   14     -55.8989405092      5.13e-07     00000  Normal BFGS step
   15     -55.8989405092      3.30e-07     00000  Normal BFGS step
   16     -55.8989405092      1.17e-07     00000  Normal BFGS step
   17     -55.8989405092      4.91e-08     00000  Normal BFGS step
   18     -55.8989405092      5.95e-09     00000 Convergence criterion met
Timing for Single Stationary Point: 251.00s (wall), 1949.06s (cpu)
Begin Timing: Stability
===================================================
Beginning Test for Internal Stability
===================================================
generating davidson guess vectors based on koopmans excitations
    1      4.19e-01     00000 Davidson Iteration
    2      1.98e-02     00000 Davidson Iteration
    3      3.49e-02     00000 Davidson Iteration
    4      3.31e-02     00000 Davidson Iteration
    5      1.28e-02     00000 Davidson Iteration
    6      4.74e-03     00000 Davidson Iteration
    7      1.88e-03     00000 Davidson Iteration
    8      7.50e-04     00000 Davidson Iteration
    9      3.75e-04     00000 Davidson Iteration
   10      1.63e-04     00000 Davidson Iteration
   11      8.07e-05     00000 Davidson Iteration
   12      3.96e-04     00000 Davidson Iteration
   13      1.84e-04     00000 Davidson Iteration
   14      3.52e-05     00000 Davidson Converged
converged_eigenvalues
  -0.0543
  -0.0785
Threshold for negative eigenvalues: -1.0e-05
solution was a saddle point (unstable)
displacing from saddle point as requested
performing a line search along the lowest hessian eigenvector after a small displacement (1E-3) to give a non-zero gradient along this direction 
===================================================
End Test for Internal Stability
===================================================
Timing for Internal Stability: 2273.00s (wall), 18018.81s (cpu)
completed scf stability macro iteration 1
beginning next scf after displacing from saddle point
Begin Timing: SCF Single Stationary Point Calculation
begin iterations for algorithm: GDM          
the SCF tolerance is set to 1.00e-08
    1     -55.8994728621      1.54e-02     00000  Normal BFGS step
    2     -55.8987122109      4.54e-02     00000 Line search: overstep
    3     -55.8997624785      1.43e-02     00000  Normal BFGS step
    4     -55.9002834984      7.78e-03     00000  Normal BFGS step
    5     -55.9008652496      1.09e-02     00000  Normal BFGS step
    6     -55.9011845218      1.06e-02     00000  Normal BFGS step
    7     -55.9009693085      1.34e-02     00000 Line search: overstep
    8     -55.9013489151      4.42e-03     00000  Normal BFGS step
    9     -55.9014395688      3.74e-03     00000  Normal BFGS step
   10     -55.9014767383      1.34e-03     00000  Normal BFGS step
   11     -55.9014827087      6.43e-04     00000  Normal BFGS step
   12     -55.9014843891      2.25e-04     00000  Normal BFGS step
   13     -55.9014845994      1.88e-04     00000  Normal BFGS step
   14     -55.9014846750      7.05e-05     00000  Normal BFGS step
   15     -55.9014846852      5.39e-05     00000  Normal BFGS step
   16     -55.9014846887      3.37e-05     00000  Normal BFGS step
   17     -55.9014846888      4.77e-05     00000  Normal BFGS step
   18     -55.9014846893      3.04e-05     00000  Normal BFGS step
   19     -55.9014846899      8.20e-06     00000  Normal BFGS step
   20     -55.9014846900      1.35e-05     00000  Normal BFGS step
   21     -55.9014846899      1.25e-05     00000  Normal BFGS step
   22     -55.9014846900      1.11e-06     00000  Normal BFGS step
   23     -55.9014846900      5.20e-07     00000  Normal BFGS step
   24     -55.9014846900      1.28e-06     00000  Normal BFGS step
   25     -55.9014846900      4.75e-07     00000  Normal BFGS step
   26     -55.9014846900      1.65e-07     00000  Normal BFGS step
   27     -55.9014846900      3.05e-07     00000  Normal BFGS step
   28     -55.9014846900      1.68e-07     00000  Normal BFGS step
   29     -55.9014846900      3.45e-08     00000  Normal BFGS step
   30     -55.9014846900      5.35e-08     00000  Normal BFGS step
   31     -55.9014846900      2.76e-08     00000  Normal BFGS step
   32     -55.9014846900      1.81e-08     00000  Normal BFGS step
   33     -55.9014846900      1.98e-08     00000  Normal BFGS step
   34     -55.9014846900      2.01e-08     00000  Normal BFGS step
   35     -55.9014846900      1.34e-07     00000  Normal BFGS step
   36     -55.9014846900      1.53e-07     00000  Normal BFGS step
  /global/home/groups-sw/mhg/qchem_public/qchem5p0/libgscf/libgscf/opt/gdm.C::WARNING energy changes are now smaller than effective accuracy.
  /global/home/groups-sw/mhg/qchem_public/qchem5p0/libgscf/libgscf/opt/gdm.C::        calculation will continue, but THRESH should be increased
  /global/home/groups-sw/mhg/qchem_public/qchem5p0/libgscf/libgscf/opt/gdm.C::        or SCF_CONVERGENCE decreased. 
  /global/home/groups-sw/mhg/qchem_public/qchem5p0/libgscf/libgscf/opt/gdm.C::        effective_thresh = 8.70e-09
   37     -55.9014846900      6.78e-06     00000  Normal BFGS step
   38     -55.9014846900      7.57e-06     00000  Normal BFGS step
   39     -55.9014846900      1.30e-05     00000  Normal BFGS step
   40     -55.9014846901      3.67e-06     00000  Normal BFGS step
   41     -55.9014846901      2.74e-06     00000  Normal BFGS step
   42     -55.9014846901      6.33e-06     00000  Normal BFGS step
   43     -55.9014846901      2.23e-06     00000  Normal BFGS step
   44     -55.9014846901      5.98e-06     00000  Normal BFGS step
   45     -55.9014846901      3.22e-06     00000  Normal BFGS step
   46     -55.9014846903      1.77e-05     00000  Normal BFGS step
   47     -55.9014846942      1.54e-04     00000  Normal BFGS step
   48     -55.9014846662      2.17e-04     00000 Line search: overstep
   49     -55.9014846983      5.58e-05     00000  Normal BFGS step
   50     -55.9014847142      1.09e-04     00000  Normal BFGS step
   51     -55.9014847571      2.52e-04     00000 Line search: understep
   52     -55.9014847186      2.01e-03     00000  Normal BFGS step
   53     -55.9014855920      1.32e-03     00000  Normal BFGS step
   54     -55.8188286612      5.60e-01     00000 Line search: overstep
   55     -55.9013657048      1.01e-02     00000 Line search: overstep
   56     -55.9014863790      1.85e-03     00000  Normal BFGS step
   57     -55.9012335494      1.28e-02     00000 Line search: overstep
   58     -55.9014875621      2.43e-03     00000  Normal BFGS step
   59     -55.9014800036      5.99e-03     00000 Line search: overstep
   60     -55.9014888372      2.77e-03     00000  Normal BFGS step
   61     -55.9014892230      3.06e-03     00000  Normal BFGS step
   62     -55.9014928495      2.39e-03     00000  Normal BFGS step
   63     -55.9014976059      2.91e-03     00000  Normal BFGS step
   64     -55.9015036369      1.45e-03     00000  Normal BFGS step
   65     -55.9015040031      7.95e-04     00000  Normal BFGS step
   66     -55.9015054135      2.62e-04     00000  Normal BFGS step
   67     -55.9015054398      2.08e-04     00000  Normal BFGS step
   68     -55.9015055210      1.32e-04     00000  Normal BFGS step
   69     -55.9015054267      2.35e-04     00000 Line search: overstep
   70     -55.9015055378      6.98e-05     00000  Normal BFGS step
   71     -55.9015053802      3.08e-04     00000 Line search: overstep
   72     -55.9015055400      6.37e-05     00000  Normal BFGS step
   73     -55.9015055407      7.99e-05     00000  Normal BFGS step
   74     -55.9015055474      6.39e-05     00000  Normal BFGS step
   75     -55.9015055492      6.39e-05     00000  Normal BFGS step
   76     -55.9015055528      3.78e-05     00000  Normal BFGS step
   77     -55.9015055541      1.69e-05     00000  Normal BFGS step
   78     -55.9015055561      1.57e-05     00000  Normal BFGS step
   79     -55.9015055573      3.59e-05     00000  Normal BFGS step
   80     -55.9015055597      2.70e-05     00000  Normal BFGS step
   81     -55.9015055623      2.60e-05     00000  Normal BFGS step
   82     -55.9015055641      8.67e-06     00000  Normal BFGS step
   83     -55.9015055649      1.32e-05     00000  Normal BFGS step
   84     -55.9015055653      1.69e-05     00000  Normal BFGS step
   85     -55.9015055654      3.89e-06     00000  Normal BFGS step
   86     -55.9015055654      4.98e-06     00000  Normal BFGS step
   87     -55.9015055654      5.28e-06     00000  Normal BFGS step
   88     -55.9015055655      2.24e-06     00000  Normal BFGS step
   89     -55.9015055655      1.62e-06     00000  Normal BFGS step
   90     -55.9015055655      2.36e-06     00000  Normal BFGS step
   91     -55.9015055655      1.74e-06     00000  Normal BFGS step
   92     -55.9015055655      2.87e-07     00000  Normal BFGS step
   93     -55.9015055655      3.21e-07     00000  Normal BFGS step
   94     -55.9015055655      3.50e-07     00000  Normal BFGS step
   95     -55.9015055655      4.72e-07     00000  Normal BFGS step
   96     -55.9015055655      3.71e-08     00000  Normal BFGS step
   97     -55.9015055655      4.81e-08     00000  Normal BFGS step
   98     -55.9015055655      1.54e-08     00000  Normal BFGS step
   99     -55.9015055655      5.04e-08     00000  Normal BFGS step
  100     -55.9015055655      8.12e-09     00000 Convergence criterion met
Timing for Single Stationary Point: 1319.00s (wall), 10368.70s (cpu)
Begin Timing: Stability
===================================================
Beginning Test for Internal Stability
===================================================
generating davidson guess vectors based on koopmans excitations
    1      5.60e-01     00000 Davidson Iteration
    2      3.80e-01     00000 Davidson Iteration
    3      3.01e-01     00000 Davidson Iteration
    4      2.35e-01     00000 Davidson Iteration
    5      1.07e-01     00000 Davidson Iteration
    6      1.23e-01     00000 Davidson Iteration
    7      1.24e-01     00000 Davidson Iteration
    8      5.68e-02     00000 Davidson Iteration
    9      5.53e-02     00000 Davidson Iteration
   10      7.47e-02     00000 Davidson Iteration
   11      6.18e-02     00000 Davidson Iteration
   12      5.88e-02     00000 Davidson Iteration
   13      2.60e-02     00000 Davidson Iteration
   14      2.56e-02     00000 Davidson Iteration
   15      1.72e-02     00000 Davidson Iteration
   16      1.50e-02     00000 Davidson Iteration
   17      8.66e-03     00000 Davidson Iteration
   18      7.44e-03     00000 Davidson Iteration
   19      5.24e-03     00000 Davidson Iteration
   20      4.99e-03     00000 Davidson Iteration
   21      4.80e-03     00000 Davidson Iteration
   22      3.00e-03     00000 Davidson Iteration
   23      1.82e-03     00000 Davidson Iteration
   24      8.55e-04     00000 Davidson Iteration
   25      4.43e-04     00000 Davidson Iteration
   26      1.64e-04     00000 Davidson Iteration
   27      7.14e-05     00000 Davidson Iteration
   28      4.59e-04     00000 Davidson Iteration
   29      2.38e-04     00000 Davidson Iteration
   30      1.96e-04     00000 Davidson Iteration
   31      1.50e-04     00000 Davidson Iteration
   32      1.11e-04     00000 Davidson Iteration
   33      1.02e-04     00000 Davidson Iteration
   34      6.20e-05     00000 Davidson Converged
converged_eigenvalues
   0.0049
   0.0347
Threshold for negative eigenvalues: -1.0e-05
solution was a local minimum (stable)
===================================================
End Test for Internal Stability
===================================================
Our SCF solution is stable!
Timing for Total SCF: 9150.00s (wall), 72461.40s (cpu)
 Total energy in the final basis set =      -55.9015055655
<S^2> =          0.277663414
    ==================================================
              The end of Object-Oriented SCFman       
    ==================================================
 
 --------------------------------------------------------------
 
                    Orbital Energies (a.u.)
 --------------------------------------------------------------
 
 Alpha MOs
 -- Occupied --
-13.728  -0.456  -0.132   0.006   0.045
 -- Virtual --
  0.069   0.072   0.093   0.113   0.121   0.156   0.165   0.165
  0.172   0.180   0.205   0.211   0.238   0.264   0.271   0.275
  0.283   0.296   0.303   0.311   0.316   0.320   0.332   0.334
  0.345   0.358   0.387   0.390   0.392   0.392   0.400   0.439
  0.442   0.448   0.456   0.482   0.496   0.502   0.510   0.520
  0.532   0.535   0.536   0.550   0.553   0.554   0.578   0.587
  0.590   0.592   0.620   0.624   0.627   0.650   0.655   0.676
  0.686   0.686   0.697   0.703   0.708   0.714   0.724   0.734
  0.752   0.780   0.789   0.795   0.809   0.823   0.827   0.848
  0.852   0.861   0.865   0.876   0.880   0.888   0.906   0.915
  0.926   0.952   0.958   0.967   0.970   0.975   0.981   0.997
  0.999   1.010   1.020   1.031   1.058   1.059   1.089   1.096
  1.103   1.105   1.129   1.129   1.134   1.135   1.170   1.171
  1.191   1.192   1.229   1.231   1.234   1.261   1.391   1.416
  1.432   1.540   1.586   1.609   1.613   1.711   1.713   1.719
  1.755   1.785   1.818   1.829   1.850   1.853   1.886   1.890
  1.992   2.075   2.086   2.104   2.108   2.247   2.313   2.412
  2.568   2.578   2.653   2.657   2.703   2.821   2.877   2.922
  3.030   3.125   3.193   3.202   3.289   3.358   3.376   3.542
  3.578   3.584   3.686   3.695   3.703   3.725   3.769   3.793
  3.858   3.930   3.994   4.012   4.038   4.083   4.250   4.268
  4.305   4.349   4.408   4.503   4.577   4.628   4.681   4.811
  5.104   5.192   5.246   5.291   5.314   5.443   5.457   5.776
  5.823   5.891   5.961   6.022   6.058   6.218   6.426   6.449
  6.488   6.547   6.599   6.606   6.795   6.821   6.855   7.142
  7.498   7.702   7.765   7.851   8.078   8.295   8.617   8.617
  8.631   8.714   8.886   9.026   9.136   9.241   9.372   9.383
  9.652   9.693   9.903   9.911  10.106  10.228  10.282  10.327
 11.521  11.604  11.605  11.607  11.649  11.650  11.765  11.801
 11.814  11.826  11.918  11.953  12.017  12.048  12.491  12.668
 12.695  12.780  12.808  12.933  12.939  13.040  13.084  13.128
 13.672  13.713  14.157  14.265  14.403  14.406  15.113  15.240
 15.291  15.388  15.528  15.603  15.629  15.673  15.969  16.127
 16.292  16.455  16.659  16.892  17.020  17.044  17.070  17.159
 17.315  17.390  17.435  17.471  17.580  17.766  17.922  17.987
 18.015  18.528  19.049  19.320  19.646  19.742  20.753  20.795
 20.973  21.145  21.210  22.234  23.653  23.698  23.814  23.869
 24.327  25.752  26.072  26.327  28.050  28.581  41.360  41.465
 48.147  48.245  48.343  48.600  49.451  91.142  91.185  91.247
 91.260  92.921  93.017 105.610
 
 Beta MOs
 -- Occupied --
-13.728  -0.456  -0.132   0.006   0.045
 -- Virtual --
  0.069   0.072   0.093   0.113   0.121   0.156   0.165   0.165
  0.172   0.180   0.205   0.211   0.238   0.264   0.271   0.275
  0.283   0.296   0.303   0.311   0.316   0.320   0.332   0.334
  0.345   0.358   0.387   0.390   0.392   0.392   0.400   0.439
  0.442   0.448   0.456   0.482   0.496   0.502   0.510   0.520
  0.532   0.535   0.536   0.550   0.553   0.554   0.578   0.587
  0.590   0.592   0.620   0.624   0.627   0.650   0.655   0.676
  0.686   0.686   0.697   0.703   0.708   0.714   0.724   0.734
  0.752   0.780   0.789   0.795   0.809   0.823   0.827   0.848
  0.852   0.861   0.865   0.876   0.880   0.888   0.906   0.915
  0.926   0.952   0.958   0.967   0.970   0.975   0.981   0.997
  0.999   1.010   1.020   1.031   1.058   1.059   1.089   1.096
  1.103   1.105   1.129   1.129   1.134   1.135   1.170   1.171
  1.191   1.192   1.229   1.231   1.234   1.261   1.391   1.416
  1.432   1.540   1.586   1.609   1.613   1.711   1.713   1.719
  1.755   1.785   1.818   1.829   1.850   1.853   1.886   1.890
  1.992   2.075   2.086   2.104   2.108   2.247   2.313   2.412
  2.568   2.578   2.653   2.657   2.703   2.821   2.877   2.922
  3.030   3.125   3.193   3.202   3.289   3.358   3.376   3.542
  3.578   3.584   3.686   3.695   3.703   3.725   3.769   3.793
  3.858   3.930   3.994   4.012   4.038   4.083   4.250   4.268
  4.305   4.349   4.408   4.503   4.577   4.628   4.681   4.811
  5.104   5.192   5.246   5.291   5.314   5.443   5.457   5.776
  5.823   5.891   5.961   6.022   6.058   6.218   6.426   6.449
  6.488   6.547   6.599   6.606   6.795   6.821   6.855   7.142
  7.498   7.702   7.765   7.851   8.078   8.295   8.617   8.617
  8.631   8.714   8.886   9.026   9.136   9.241   9.372   9.383
  9.652   9.693   9.903   9.911  10.106  10.228  10.282  10.327
 11.521  11.604  11.605  11.607  11.649  11.650  11.765  11.801
 11.814  11.826  11.918  11.953  12.017  12.048  12.491  12.668
 12.695  12.780  12.808  12.933  12.939  13.040  13.084  13.128
 13.672  13.713  14.157  14.265  14.403  14.406  15.113  15.240
 15.291  15.388  15.528  15.603  15.629  15.673  15.969  16.127
 16.292  16.455  16.659  16.892  17.020  17.044  17.070  17.159
 17.315  17.390  17.435  17.471  17.580  17.766  17.922  17.987
 18.015  18.528  19.049  19.320  19.646  19.742  20.753  20.795
 20.973  21.145  21.210  22.234  23.653  23.698  23.814  23.869
 24.327  25.752  26.072  26.327  28.050  28.581  41.360  41.465
 48.147  48.245  48.343  48.600  49.451  91.142  91.185  91.247
 91.260  92.921  93.017 105.610
 --------------------------------------------------------------
 
          Ground-State Mulliken Net Atomic Charges

     Atom                 Charge (a.u.)    Spin (a.u.)
  --------------------------------------------------------
      1 N                     0.780319      -0.000000
      2 H                    -0.890160      -0.246472
      3 H                    -0.890159       0.246473
  --------------------------------------------------------
  Sum of atomic charges =    -1.000000
  Sum of spin   charges =     0.000000

 -----------------------------------------------------------------
                    Cartesian Multipole Moments
 -----------------------------------------------------------------
    Charge (ESU x 10^10)
                -4.8032
    Dipole Moment (Debye)
         X      -0.0000      Y      -0.0000      Z      -1.0150
       Tot       1.0150
    Quadrupole Moments (Debye-Ang)
        XX     -22.4376     XY       0.6227     YY     -18.0498
        XZ       0.0000     YZ       0.0000     ZZ     -19.0412
    Octopole Moments (Debye-Ang^2)
       XXX      -0.0000    XXY      -0.0000    XYY      -0.0000
       YYY      -0.0000    XXZ       2.4700    XYZ      -0.6038
       YYZ       3.2727    XZZ      -0.0000    YZZ      -0.0000
       ZZZ       7.4520
    Hexadecapole Moments (Debye-Ang^3)
      XXXX    -208.1587   XXXY       9.0895   XXYY     -71.2175
      XYYY       9.5867   YYYY    -217.8749   XXXZ       0.0000
      XXYZ       0.0000   XYYZ       0.0000   YYYZ       0.0000
      XXZZ     -64.9145   XYZZ       3.0183   YYZZ     -66.3546
      XZZZ       0.0000   YZZZ       0.0000   ZZZZ    -179.4840
 -----------------------------------------------------------------
Archival summary:
1\1\n0075.mhg0\SP\ProcedureUnspecified\BasisUnspecified\12(1-,1)\yhljason\MonSep1420:16:282020MonSep1420:16:282020\0\\#,ProcedureUnspecified,BasisUnspecified,\\-1,1\N\H,1,1.02852\H,1,1.02852,2,102.182\\\@

 Total job time:  9176.33s(wall), 72638.34s(cpu) 
 Mon Sep 14 20:16:28 2020

        *************************************************************
        *                                                           *
        *  Thank you very much for using Q-Chem.  Have a nice day.  *
        *                                                           *
        *************************************************************


