Q-Chem Developer Version!
                  Welcome to Q-Chem
     A Quantum Leap Into The Future Of Chemistry


 Q-Chem 5.1, Q-Chem, Inc., Pleasanton, CA (2018)

 Yihan Shao,  Zhengting Gan,  E. Epifanovsky,  A. T. B. Gilbert,  M. Wormit,  
 J. Kussmann,  A. W. Lange,  A. Behn,  Jia Deng,  Xintian Feng,  D. Ghosh,  
 M. Goldey,  P. R. Horn,  L. D. Jacobson,  I. Kaliman,  T. Kus,  A. Landau,  
 Jie Liu,  E. I. Proynov,  R. M. Richard,  R. P. Steele,  E. J. Sundstrom,  
 H. L. Woodcock III,  P. M. Zimmerman,  D. Zuev,  B. Albrecht,  E. Alguire,  
 S. A. Baeppler,  D. Barton,  Z. Benda,  Y. A. Bernard,  E. J. Berquist,  
 K. B. Bravaya,  H. Burton,  D. Casanova,  Chun-Min Chang,  Yunqing Chen,  
 A. Chien,  K. D. Closser,  M. P. Coons,  S. Coriani,  S. Dasgupta,  
 A. L. Dempwolff,  M. Diedenhofen,  Hainam Do,  R. G. Edgar,  Po-Tung Fang,  
 S. Faraji,  S. Fatehi,  Qingguo Feng,  K. D. Fenk,  J. Fosso-Tande,  
 Qinghui Ge,  A. Ghysels,  G. Gidofalvi,  J. Gomes,  J. Gonthier,  A. Gunina,  
 D. Hait,  M. W. D. Hanson-Heine,  P. H. P. Harbach,  A. W. Hauser,  
 J. E. Herr,  E. G. Hohenstein,  Z. C. Holden,  Kerwin Hui,  B. C. Huynh,  
 T.-C. Jagau,  Hyunjun Ji,  B. Kaduk,  K. Khistyaev,  Jaehoon Kim,  
 P. Klunzinger,  K. Koh,  D. Kosenkov,  L. Koulias,  T. Kowalczyk,  
 C. M. Krauter,  A. Kunitsa,  Ka Un Lao,  A. Laurent,  K. V. Lawler,  
 Joonho Lee,  D. Lefrancois,  S. Lehtola,  D. S. Levine,  Yi-Pei Li,  
 You-Sheng Lin,  Fenglai Liu,  E. Livshits,  A. Luenser,  P. Manohar,  
 E. Mansoor,  S. F. Manzer,  Shan-Ping Mao,  Yuezhi Mao,  N. Mardirossian,  
 A. V. Marenich,  T. Markovich,  L. A. Martinez-Martinez,  S. A. Maurer,  
 N. J. Mayhall,  S. C. McKenzie,  J.-M. Mewes,  A. F. Morrison,  
 J. W. Mullinax,  K. Nanda,  T. S. Nguyen-Beck,  R. Olivares-Amaya,  
 J. A. Parkhill,  T. M. Perrine,  F. Plasser,  P. Pokhilko,  S. Prager,  
 A. Prociuk,  E. Ramos,  D. R. Rehn,  F. Rob,  M. Schneider,  N. Sergueev,  
 S. M. Sharada,  S. Sharma,  D. W. Small,  T. Stauch,  T. Stein,  
 Yu-Chuan Su,  A. J. W. Thom,  A. Tkatchenko,  T. Tsuchimochi,  N. M. Tubman,  
 L. Vogt,  M. L. Vidal,  O. Vydrov,  M. A. Watson,  J. Wenzel,  
 M. de Wergifosse,  T. A. Wesolowski,  A. White,  J. Witte,  A. Yamada,  
 Jun Yang,  K. Yao,  S. Yeganeh,  S. R. Yost,  Zhi-Qiang You,  A. Zech,  
 Igor Ying Zhang,  Xing Zhang,  Yan Zhao,  Ying Zhu,  B. R. Brooks,  
 G. K. L. Chan,  C. J. Cramer,  M. S. Gordon,  W. J. Hehre,  A. Klamt,  
 M. W. Schmidt,  C. D. Sherrill,  D. G. Truhlar,  A. Aspuru-Guzik,  R. Baer,  
 A. T. Bell,  N. A. Besley,  Jeng-Da Chai,  A. E. DePrince, III,  
 R. A. DiStasio Jr.,  A. Dreuw,  B. D. Dunietz,  T. R. Furlani,  
 Chao-Ping Hsu,  Yousung Jung,  Jing Kong,  D. S. Lambrecht,  WanZhen Liang,  
 C. Ochsenfeld,  V. A. Rassolov,  L. V. Slipchenko,  J. E. Subotnik,  
 T. Van Voorhis,  J. M. Herbert,  A. I. Krylov,  P. M. W. Gill,  M. Head-Gordon

 Contributors to earlier versions of Q-Chem not listed above: 
 R. D. Adamson,  B. Austin,  J. Baker,  G. J. O. Beran,  K. Brandhorst,  
 S. T. Brown,  E. F. C. Byrd,  A. K. Chakraborty,  C.-L. Cheng,  
 Siu Hung Chien,  D. M. Chipman,  D. L. Crittenden,  H. Dachsel,  
 R. J. Doerksen,  A. D. Dutoi,  L. Fusti-Molnar,  W. A. Goddard III,  
 A. Golubeva-Zadorozhnaya,  S. R. Gwaltney,  G. Hawkins,  A. Heyden,  
 S. Hirata,  G. Kedziora,  F. J. Keil,  C. Kelley,  Jihan Kim,  R. A. King,  
 R. Z. Khaliullin,  P. P. Korambath,  W. Kurlancheek,  A. M. Lee,  M. S. Lee,  
 S. V. Levchenko,  Ching Yeh Lin,  D. Liotard,  R. C. Lochan,  I. Lotan,  
 P. E. Maslen,  N. Nair,  D. P. O'Neill,  D. Neuhauser,  E. Neuscamman,  
 C. M. Oana,  R. Olson,  B. Peters,  R. Peverati,  P. A. Pieniazek,  
 Y. M. Rhee,  J. Ritchie,  M. A. Rohrdanz,  E. Rosta,  N. J. Russ,  
 H. F. Schaefer III,  N. E. Schultz,  N. Shenvi,  A. C. Simmonett,  A. Sodt,  
 D. Stuck,  K. S. Thanthiriwatte,  V. Vanovschi,  Tao Wang,  A. Warshel,  
 C. F. Williams,  Q. Wu,  X. Xu,  W. Zhang

 Please cite Q-Chem as follows:
 Y. Shao et al., Mol. Phys. 113, 184-215 (2015)
 DOI: 10.1080/00268976.2014.952696

 Q-Chem 5.1.1 for Intel X86 EM64T Linux

 Parts of Q-Chem use Armadillo 8.300.2 (Tropical Shenanigans).
 http://arma.sourceforge.net/

 Q-Chem begins on Thu Aug 13 13:36:00 2020  

Host: n0063.mhg0
0

     Scratch files written to /local/scratch/users/yhljason/BN_B97-2_aug-pc-4.inp20200813121023//
Input Ideriv = 2
Curr. Ideriv = -1
Max.  Ideriv = 2

Checking the input file for inconsistencies... 	...done.

--------------------------------------------------------------
User input:
--------------------------------------------------------------
$molecule
0 3  
B1      0.0000  0.0000  0.0000
N2      0.0000  0.0000  1.3250
$end

$rem
jobtype sp
method B97-2
xc_grid 000099000590
basis aug-pc-4
max_scf_cycles 200
thresh 14
scf_convergence 8
scf_algorithm gdm
symmetry false
sym_ignore true
unrestricted true
gen_scfman true
internal_stability_iter 15
internal_stability_davidson_iter 200
mem_total 64000
mem_static 1500
n_frozen_core 0
$end


--------------------------------------------------------------
 ----------------------------------------------------------------
             Standard Nuclear Orientation (Angstroms)
    I     Atom           X                Y                Z
 ----------------------------------------------------------------
    1      B       0.0000000000     0.0000000000     0.0000000000
    2      N       0.0000000000     0.0000000000     1.3250000000
 ----------------------------------------------------------------
 Nuclear Repulsion Energy =    13.9782659457 hartrees
 There are        7 alpha and        5 beta electrons
 Requested basis set is aug-pc-4
 There are 66 shells and 290 basis functions

 Total QAlloc Memory Limit  64000 MB
 Mega-Array Size      1467 MB
 MEM_STATIC part      1500 MB

                       Distance Matrix (Angstroms)
             B (  1)
   N (  2)  1.325000
 
 A cutoff of  1.0D-14 yielded   2209 shell pairs
 There are     42981 function pairs (     83891 Cartesian)
 
 -------------------------------------------------------
 OpenMP Integral Computing Module                       
 Release: version 1.0, May 2013, Q-Chem Inc. Pittsburgh 
 -------------------------------------------------------
 Integral Job Info:
 Integral job number is                      11
 Integral operator is                         1
 short-range coefficients                     0
 long-range coefficients              100000000
 Omega coefficients                           0
 if combine SR and LR in K                    0
 Integral screening is                        0
 Integral computing path is                   2
 max size of driver memory is           6400000
 size of driver memory is               5498286
 size of scratch memory is             29792225
 max col of scratch BK array             194481
 max len of scratch array in speh3         5572
 max len of scratch index in speh4           72
 max int batch size is                      520
 min int batch size is                       52
 fixed nKL is                                25
 max L of basis functions is                  5
 order of int derivative is                   0
 number of shells is                         66
 number of basis is                         404
 number of cartesian basis is               404
 number of contracted shell pairs          2209
 number of primitive shell pairs           5705
 maxK2 (contraction) of shell pair          121
 max number of K2 of shell pair               1
 max number of CS2 of shell pair            197
 max number of PS2 of shell pair            308
 mem total for path MDJ                  956866
 -------------------------------------------------------
 Smallest overlap matrix eigenvalue = 1.82E-06

 Scale SEOQF with 1.000000e-01/1.000000e-01/1.000000e-01

 Standard Electronic Orientation quadrupole field applied
 Nucleus-field energy     =    -0.0000000013 hartrees
 Guess from superposition of atomic densities
 Warning:  Energy on first SCF cycle will be non-variational
 SAD guess density has 12.000000 electrons

 -----------------------------------------------------------------------
  General SCF calculation program by
  Eric Jon Sundstrom, Paul Horn, Yuezhi Mao, Dmitri Zuev, Alec White,
  David Stuck, Shaama M.S., Shane Yost, Joonho Lee, David Small,
  Daniel Levine, Susi Lehtola, Hugh Burton, Evgeny Epifanovsky
 -----------------------------------------------------------------------
 Exchange:     0.2100 Hartree-Fock + 1.0000 B97-2
 Correlation:  1.0000 B97-2
 Using Euler-Maclaurin-Lebedev (99,590) quadrature formula
Running Object-Oriented UKS (UHF)
performing a single roothaan step with Fock from read density so that orbitals are available to all algorithms
 LTot/LBra/LKet=          18           9           9
 LTot/LBra/LKet=          18           9           9

 Q-Chem warning:

 in GenH1, ket side, handled with new code


 Q-Chem warning:

 in GenH1, ket side, handled with new code

 LTot/LBra/LKet=          18           9           9

 Q-Chem warning:

 in GenH1, ket side, handled with new code

 LTot/LBra/LKet=          18           9           9

 Q-Chem warning:

 in GenH1, ket side, handled with new code

 LTot/LBra/LBra=          18           9           9

 Q-Chem warning:

 in GenH1, bra side, handled with new code

energy of the guess density (C=0) -79.468489509869
We will preform up to 15 macro iterations over saddle points until a stable solution is found
Energy prior to optimization (guess energy) = -79.364801784231
Begin Timing: Total SCF Calculation
Begin Timing: SCF Single Stationary Point Calculation
begin iterations for algorithm: GDM          
the SCF tolerance is set to 1.00e-08
    1     -79.3648017842      3.09e-01     00000  Descent step
    2     -79.2662452055      1.09e+00     00000 Line search: overstep
    3     -79.4027938760      3.19e-02     00000  Normal BFGS step
    4     -79.4094506541      9.71e-03     00000  Normal BFGS step
    5     -79.4099446537      3.62e-03     00000  Normal BFGS step
    6     -79.4100070022      9.01e-04     00000  Normal BFGS step
    7     -79.4100104171      3.93e-04     00000  Normal BFGS step
    8     -79.4100110354      1.57e-04     00000  Normal BFGS step
    9     -79.4100111157      7.29e-05     00000  Normal BFGS step
   10     -79.4100111326      1.72e-05     00000  Normal BFGS step
   11     -79.4100111332      4.55e-06     00000  Normal BFGS step
   12     -79.4100111333      9.81e-07     00000  Normal BFGS step
   13     -79.4100111333      4.94e-07     00000  Normal BFGS step
   14     -79.4100111333      8.01e-07     00000  Normal BFGS step
   15     -79.4100111333      6.39e-09     00000 Convergence criterion met
Timing for Single Stationary Point: 1801.00s (wall), 14287.14s (cpu)
Begin Timing: Stability
===================================================
Beginning Test for Internal Stability
===================================================
generating davidson guess vectors based on koopmans excitations
    1      3.70e-01     00000 Davidson Iteration
    2      7.58e-02     00000 Davidson Iteration
    3      1.38e-02     00000 Davidson Iteration
    4      8.78e-03     00000 Davidson Iteration
    5      1.31e-03     00000 Davidson Iteration
    6      2.94e-04     00000 Davidson Iteration
    7      7.01e-05     00000 Davidson Iteration
    8      2.75e-05     00000 Davidson Converged
converged_eigenvalues
   5.3534e-08
   1.0566e-01
Threshold for negative eigenvalues: -1.0e-05
solution was a local minimum (stable)
===================================================
End Test for Internal Stability
===================================================
Our SCF solution is stable!
Timing for Total SCF: 3107.00s (wall), 24687.44s (cpu)
 Total energy in the final basis set =      -79.4100111333
<S^2> =          2.004129807
    ==================================================
              The end of Object-Oriented SCFman       
    ==================================================
 
 --------------------------------------------------------------
 
                    Orbital Energies (a.u.)
 --------------------------------------------------------------
 
 Alpha MOs
 -- Occupied --
-14.386  -6.851  -0.864  -0.420  -0.373  -0.332  -0.326
 -- Virtual --
 -0.042  -0.024  -0.000   0.014   0.015   0.018   0.049   0.049
  0.051   0.053   0.063   0.063   0.063   0.068   0.080   0.094
  0.096   0.100   0.128   0.128   0.145   0.146   0.146   0.150
  0.156   0.175   0.184   0.186   0.186   0.188   0.207   0.215
  0.218   0.220   0.230   0.231   0.237   0.237   0.237   0.240
  0.244   0.245   0.245   0.314   0.315   0.330   0.336   0.340
  0.341   0.353   0.355   0.355   0.357   0.358   0.359   0.363
  0.363   0.370   0.370   0.386   0.397   0.401   0.432   0.432
  0.446   0.446   0.455   0.487   0.489   0.496   0.532   0.561
  0.568   0.582   0.586   0.588   0.652   0.656   0.657   0.657
  0.660   0.660   0.692   0.692   0.703   0.734   0.742   0.753
  0.762   0.762   0.764   0.771   0.825   0.825   0.855   0.855
  0.857   0.901   0.901   0.920   0.920   0.953   0.961   0.979
  1.006   1.014   1.019   1.077   1.224   1.226   1.249   1.251
  1.266   1.387   1.387   1.442   1.442   1.504   1.517   1.518
  1.522   1.535   1.551   1.567   1.626   1.763   1.772   1.775
  1.787   1.788   1.984   2.003   2.014   2.052   2.135   2.137
  2.519   2.536   2.622   2.890   2.909   2.925   2.925   2.930
  3.044   3.069   3.070   3.178   3.178   3.225   3.225   3.252
  3.273   3.397   3.572   3.573   3.652   3.655   3.658   3.664
  3.680   3.803   3.804   3.837   3.855   3.959   3.967   3.989
  4.045   4.537   4.538   4.570   4.593   4.655   4.895   4.897
  5.007   5.042   5.042   5.363   5.363   5.573   5.600   6.192
  6.193   6.321   6.716   6.749   6.825   6.891   6.893   7.069
  7.231   7.249   7.420   7.420   7.895   7.976   7.999   8.045
  8.943   9.195   9.199   9.200   9.234   9.269   9.269   9.282
  9.282   9.402   9.402   9.406   9.422   9.533   9.534   9.784
 10.116  10.116  10.185  10.185  10.198  10.204  10.219  10.238
 10.238  10.658  10.670  10.804  10.804  10.950  11.232  11.232
 11.409  11.411  11.456  11.456  11.470  11.524  11.524  11.748
 11.776  12.132  12.132  12.277  12.299  12.691  13.575  13.609
 13.609  14.327  14.327  14.536  14.536  15.205  15.205  15.381
 15.413  15.827  15.991  16.019  16.048  16.926  16.927  17.663
 17.694  18.626  19.453  20.303  20.303  20.683  20.692  22.079
 23.193  26.191  26.221  27.783  47.853  47.854  48.149  48.169
 48.801  78.603 103.693
 
 Beta MOs
 -- Occupied --
-14.374  -6.842  -0.793  -0.360  -0.307
 -- Virtual --
 -0.205  -0.186   0.003   0.017   0.022   0.022   0.023   0.027
  0.054   0.057   0.059   0.080   0.080   0.084   0.089   0.094
  0.099   0.115   0.117   0.124   0.148   0.150   0.157   0.166
  0.170   0.171   0.179   0.193   0.193   0.199   0.201   0.208
  0.226   0.238   0.240   0.251   0.252   0.252   0.258   0.260
  0.264   0.266   0.272   0.272   0.276   0.329   0.332   0.346
  0.355   0.363   0.369   0.373   0.376   0.392   0.394   0.395
  0.396   0.400   0.401   0.403   0.404   0.432   0.438   0.443
  0.444   0.444   0.444   0.450   0.479   0.504   0.507   0.512
  0.544   0.572   0.573   0.594   0.598   0.601   0.658   0.659
  0.660   0.660   0.664   0.665   0.694   0.698   0.722   0.746
  0.752   0.763   0.769   0.774   0.778   0.781   0.826   0.830
  0.857   0.859   0.865   0.911   0.913   0.924   0.926   0.961
  0.964   0.992   1.017   1.017   1.025   1.082   1.241   1.245
  1.268   1.286   1.286   1.403   1.406   1.472   1.472   1.535
  1.541   1.541   1.551   1.553   1.580   1.584   1.642   1.794
  1.795   1.801   1.801   1.803   1.998   2.008   2.025   2.069
  2.146   2.149   2.537   2.543   2.644   2.923   2.932   2.953
  2.956   2.967   3.060   3.105   3.105   3.221   3.222   3.270
  3.272   3.297   3.301   3.435   3.618   3.618   3.685   3.701
  3.701   3.709   3.710   3.874   3.877   3.878   3.880   3.993
  4.040   4.040   4.099   4.582   4.582   4.626   4.626   4.706
  4.933   4.936   5.037   5.086   5.087   5.402   5.403   5.623
  5.623   6.228   6.230   6.352   6.769   6.770   6.868   6.948
  6.956   7.096   7.274   7.275   7.431   7.433   7.923   8.023
  8.023   8.085   8.983   9.228   9.230   9.254   9.263   9.307
  9.308   9.326   9.327   9.425   9.428   9.441   9.446   9.569
  9.576   9.809  10.182  10.182  10.241  10.245  10.246  10.246
 10.261  10.294  10.294  10.687  10.689  10.864  10.864  10.983
 11.302  11.303  11.465  11.470  11.514  11.514  11.518  11.574
 11.574  11.806  11.809  12.183  12.183  12.340  12.340  12.720
 13.621  13.658  13.663  14.397  14.397  14.594  14.595  15.254
 15.258  15.446  15.451  15.875  16.030  16.078  16.082  16.992
 16.999  17.724  17.740  18.670  19.479  20.315  20.315  20.702
 20.705  22.103  23.224  26.235  26.248  27.811  47.879  47.886
 48.179  48.182  48.822  78.612 103.709
 --------------------------------------------------------------
 
          Ground-State Mulliken Net Atomic Charges

     Atom                 Charge (a.u.)    Spin (a.u.)
  --------------------------------------------------------
      1 B                    -0.022470       1.159995
      2 N                     0.022470       0.840005
  --------------------------------------------------------
  Sum of atomic charges =    -0.000000
  Sum of spin   charges =     2.000000

 -----------------------------------------------------------------
                    Cartesian Multipole Moments
 -----------------------------------------------------------------
    Charge (ESU x 10^10)
                -0.0000
    Dipole Moment (Debye)
         X      -0.0000      Y       0.0000      Z      -1.9632
       Tot       1.9632
    Quadrupole Moments (Debye-Ang)
        XX     -10.1672     XY       0.0000     YY     -12.0814
        XZ      -0.0000     YZ       0.0000     ZZ     -14.9602
    Octopole Moments (Debye-Ang^2)
       XXX      -0.0000    XXY       0.0000    XYY      -0.0000
       YYY       0.0000    XXZ      -7.0952    XYZ       0.0000
       YYZ      -8.6231    XZZ      -0.0000    YZZ      -0.0000
       ZZZ     -28.4182
    Hexadecapole Moments (Debye-Ang^3)
      XXXX     -11.4144   XXXY       0.0000   XXYY      -4.5223
      XYYY       0.0000   YYYY     -15.6934   XXXZ      -0.0000
      XXYZ       0.0000   XYYZ      -0.0000   YYYZ      -0.0000
      XXZZ     -14.2573   XYZZ       0.0000   YYZZ     -16.5812
      XZZZ      -0.0000   YZZZ       0.0000   ZZZZ     -88.2337
 -----------------------------------------------------------------
Archival summary:
1\1\n0063.mhg0\SP\ProcedureUnspecified\BasisUnspecified\11(3)\yhljason\ThuAug1314:30:232020ThuAug1314:30:232020\0\\#,ProcedureUnspecified,BasisUnspecified,\\0,3\B\N,1,1.325\\\@

 Total job time:  3263.30s(wall), 25744.85s(cpu) 
 Thu Aug 13 14:30:23 2020

        *************************************************************
        *                                                           *
        *  Thank you very much for using Q-Chem.  Have a nice day.  *
        *                                                           *
        *************************************************************


