Q-Chem Developer Version!
                  Welcome to Q-Chem
     A Quantum Leap Into The Future Of Chemistry


 Q-Chem 5.1, Q-Chem, Inc., Pleasanton, CA (2018)

 Yihan Shao,  Zhengting Gan,  E. Epifanovsky,  A. T. B. Gilbert,  M. Wormit,  
 J. Kussmann,  A. W. Lange,  A. Behn,  Jia Deng,  Xintian Feng,  D. Ghosh,  
 M. Goldey,  P. R. Horn,  L. D. Jacobson,  I. Kaliman,  T. Kus,  A. Landau,  
 Jie Liu,  E. I. Proynov,  R. M. Richard,  R. P. Steele,  E. J. Sundstrom,  
 H. L. Woodcock III,  P. M. Zimmerman,  D. Zuev,  B. Albrecht,  E. Alguire,  
 S. A. Baeppler,  D. Barton,  Z. Benda,  Y. A. Bernard,  E. J. Berquist,  
 K. B. Bravaya,  H. Burton,  D. Casanova,  Chun-Min Chang,  Yunqing Chen,  
 A. Chien,  K. D. Closser,  M. P. Coons,  S. Coriani,  S. Dasgupta,  
 A. L. Dempwolff,  M. Diedenhofen,  Hainam Do,  R. G. Edgar,  Po-Tung Fang,  
 S. Faraji,  S. Fatehi,  Qingguo Feng,  K. D. Fenk,  J. Fosso-Tande,  
 Qinghui Ge,  A. Ghysels,  G. Gidofalvi,  J. Gomes,  J. Gonthier,  A. Gunina,  
 D. Hait,  M. W. D. Hanson-Heine,  P. H. P. Harbach,  A. W. Hauser,  
 J. E. Herr,  E. G. Hohenstein,  Z. C. Holden,  Kerwin Hui,  B. C. Huynh,  
 T.-C. Jagau,  Hyunjun Ji,  B. Kaduk,  K. Khistyaev,  Jaehoon Kim,  
 P. Klunzinger,  K. Koh,  D. Kosenkov,  L. Koulias,  T. Kowalczyk,  
 C. M. Krauter,  A. Kunitsa,  Ka Un Lao,  A. Laurent,  K. V. Lawler,  
 Joonho Lee,  D. Lefrancois,  S. Lehtola,  D. S. Levine,  Yi-Pei Li,  
 You-Sheng Lin,  Fenglai Liu,  E. Livshits,  A. Luenser,  P. Manohar,  
 E. Mansoor,  S. F. Manzer,  Shan-Ping Mao,  Yuezhi Mao,  N. Mardirossian,  
 A. V. Marenich,  T. Markovich,  L. A. Martinez-Martinez,  S. A. Maurer,  
 N. J. Mayhall,  S. C. McKenzie,  J.-M. Mewes,  A. F. Morrison,  
 J. W. Mullinax,  K. Nanda,  T. S. Nguyen-Beck,  R. Olivares-Amaya,  
 J. A. Parkhill,  T. M. Perrine,  F. Plasser,  P. Pokhilko,  S. Prager,  
 A. Prociuk,  E. Ramos,  D. R. Rehn,  F. Rob,  M. Schneider,  N. Sergueev,  
 S. M. Sharada,  S. Sharma,  D. W. Small,  T. Stauch,  T. Stein,  
 Yu-Chuan Su,  A. J. W. Thom,  A. Tkatchenko,  T. Tsuchimochi,  N. M. Tubman,  
 L. Vogt,  M. L. Vidal,  O. Vydrov,  M. A. Watson,  J. Wenzel,  
 M. de Wergifosse,  T. A. Wesolowski,  A. White,  J. Witte,  A. Yamada,  
 Jun Yang,  K. Yao,  S. Yeganeh,  S. R. Yost,  Zhi-Qiang You,  A. Zech,  
 Igor Ying Zhang,  Xing Zhang,  Yan Zhao,  Ying Zhu,  B. R. Brooks,  
 G. K. L. Chan,  C. J. Cramer,  M. S. Gordon,  W. J. Hehre,  A. Klamt,  
 M. W. Schmidt,  C. D. Sherrill,  D. G. Truhlar,  A. Aspuru-Guzik,  R. Baer,  
 A. T. Bell,  N. A. Besley,  Jeng-Da Chai,  A. E. DePrince, III,  
 R. A. DiStasio Jr.,  A. Dreuw,  B. D. Dunietz,  T. R. Furlani,  
 Chao-Ping Hsu,  Yousung Jung,  Jing Kong,  D. S. Lambrecht,  WanZhen Liang,  
 C. Ochsenfeld,  V. A. Rassolov,  L. V. Slipchenko,  J. E. Subotnik,  
 T. Van Voorhis,  J. M. Herbert,  A. I. Krylov,  P. M. W. Gill,  M. Head-Gordon

 Contributors to earlier versions of Q-Chem not listed above: 
 R. D. Adamson,  B. Austin,  J. Baker,  G. J. O. Beran,  K. Brandhorst,  
 S. T. Brown,  E. F. C. Byrd,  A. K. Chakraborty,  C.-L. Cheng,  
 Siu Hung Chien,  D. M. Chipman,  D. L. Crittenden,  H. Dachsel,  
 R. J. Doerksen,  A. D. Dutoi,  L. Fusti-Molnar,  W. A. Goddard III,  
 A. Golubeva-Zadorozhnaya,  S. R. Gwaltney,  G. Hawkins,  A. Heyden,  
 S. Hirata,  G. Kedziora,  F. J. Keil,  C. Kelley,  Jihan Kim,  R. A. King,  
 R. Z. Khaliullin,  P. P. Korambath,  W. Kurlancheek,  A. M. Lee,  M. S. Lee,  
 S. V. Levchenko,  Ching Yeh Lin,  D. Liotard,  R. C. Lochan,  I. Lotan,  
 P. E. Maslen,  N. Nair,  D. P. O'Neill,  D. Neuhauser,  E. Neuscamman,  
 C. M. Oana,  R. Olson,  B. Peters,  R. Peverati,  P. A. Pieniazek,  
 Y. M. Rhee,  J. Ritchie,  M. A. Rohrdanz,  E. Rosta,  N. J. Russ,  
 H. F. Schaefer III,  N. E. Schultz,  N. Shenvi,  A. C. Simmonett,  A. Sodt,  
 D. Stuck,  K. S. Thanthiriwatte,  V. Vanovschi,  Tao Wang,  A. Warshel,  
 C. F. Williams,  Q. Wu,  X. Xu,  W. Zhang

 Please cite Q-Chem as follows:
 Y. Shao et al., Mol. Phys. 113, 184-215 (2015)
 DOI: 10.1080/00268976.2014.952696

 Q-Chem 5.1.1 for Intel X86 EM64T Linux

 Parts of Q-Chem use Armadillo 8.300.2 (Tropical Shenanigans).
 http://arma.sourceforge.net/

 Q-Chem begins on Thu Aug 13 03:06:46 2020  

Host: n0089.mhg0
0

     Scratch files written to /local/scratch/users/yhljason/CS_TPSSh_aug-pc-4.inp20200812224613//
Input Ideriv = 2
Curr. Ideriv = -1
Max.  Ideriv = 2
Input Ideriv = 1
Curr. Ideriv = 2
Max.  Ideriv = 1

Checking the input file for inconsistencies... 	...done.

--------------------------------------------------------------
User input:
--------------------------------------------------------------
$molecule
0 1
C1      0.0000  0.0000  0.0000
S2      0.0000  0.0000  1.5349
$end

$rem
jobtype sp
method TPSSh
xc_grid 000099000590
basis aug-pc-4
max_scf_cycles 200
thresh 14
scf_convergence 8
scf_algorithm gdm
symmetry false
sym_ignore true
unrestricted true
gen_scfman true
internal_stability_iter 15
internal_stability_davidson_iter 200
mem_total 64000
mem_static 1500
n_frozen_core 0
$end


--------------------------------------------------------------
 ----------------------------------------------------------------
             Standard Nuclear Orientation (Angstroms)
    I     Atom           X                Y                Z
 ----------------------------------------------------------------
    1      C       0.0000000000     0.0000000000     0.0000000000
    2      S       0.0000000000     0.0000000000     1.5349000000
 ----------------------------------------------------------------
 Nuclear Repulsion Energy =    33.0972781528 hartrees
 There are       11 alpha and       11 beta electrons
 Requested basis set is aug-pc-4
 There are 64 shells and 286 basis functions

 Total QAlloc Memory Limit  64000 MB
 Mega-Array Size      1467 MB
 MEM_STATIC part      1500 MB

                       Distance Matrix (Angstroms)
             C (  1)
   S (  2)  1.534900
 
 A cutoff of  1.0D-14 yielded   2077 shell pairs
 There are     41799 function pairs (     82242 Cartesian)
 
 -------------------------------------------------------
 OpenMP Integral Computing Module                       
 Release: version 1.0, May 2013, Q-Chem Inc. Pittsburgh 
 -------------------------------------------------------
 Integral Job Info:
 Integral job number is                      11
 Integral operator is                         1
 short-range coefficients                     0
 long-range coefficients              100000000
 Omega coefficients                           0
 if combine SR and LR in K                    0
 Integral screening is                        0
 Integral computing path is                   2
 max size of driver memory is           6400000
 size of driver memory is               5498286
 size of scratch memory is             27847117
 max col of scratch BK array             194481
 max len of scratch array in speh3         5572
 max len of scratch index in speh4           72
 max int batch size is                      520
 min int batch size is                       52
 fixed nKL is                                 7
 max L of basis functions is                  5
 order of int derivative is                   0
 number of shells is                         64
 number of basis is                         400
 number of cartesian basis is               400
 number of contracted shell pairs          2077
 number of primitive shell pairs           9286
 maxK2 (contraction) of shell pair          225
 max number of K2 of shell pair               1
 max number of CS2 of shell pair            171
 max number of PS2 of shell pair            528
 mem total for path MDJ                  956866
 -------------------------------------------------------
 Smallest overlap matrix eigenvalue = 3.59E-06

 Scale SEOQF with 1.000000e-01/1.000000e-01/1.000000e-01

 Standard Electronic Orientation quadrupole field applied
 Nucleus-field energy     =    -0.0000000040 hartrees
 Guess from superposition of atomic densities
 Warning:  Energy on first SCF cycle will be non-variational
 SAD guess density has 22.000000 electrons

 -----------------------------------------------------------------------
  General SCF calculation program by
  Eric Jon Sundstrom, Paul Horn, Yuezhi Mao, Dmitri Zuev, Alec White,
  David Stuck, Shaama M.S., Shane Yost, Joonho Lee, David Small,
  Daniel Levine, Susi Lehtola, Hugh Burton, Evgeny Epifanovsky
 -----------------------------------------------------------------------
 Exchange:     0.1000 Hartree-Fock + 0.9000 TPSS
 Correlation:  1.0000 TPSS
 Using Euler-Maclaurin-Lebedev (99,590) quadrature formula
Running Object-Oriented UKS (UHF)
performing a single roothaan step with Fock from read density so that orbitals are available to all algorithms
 LTot/LBra/LKet=          20          10          10

 Q-Chem warning:

 in GenH1, ket side, handled with new code

 LTot/LBra/LBra=          20          10          10

 Q-Chem warning:

 in GenH1, bra side, handled with new code

energy of the guess density (C=0) -436.421468450555
We will preform up to 15 macro iterations over saddle points until a stable solution is found
Energy prior to optimization (guess energy) = -436.222156856133
Begin Timing: Total SCF Calculation
Begin Timing: SCF Single Stationary Point Calculation
begin iterations for algorithm: GDM          
the SCF tolerance is set to 1.00e-08
    1    -436.2221568561      2.59e-01     00000  Descent step
    2    -436.1977356841      4.04e-01     00000 Line search: overstep
    3    -436.2682812975      1.40e-02     00000  Normal BFGS step
    4    -436.2695794389      8.52e-03     00000  Normal BFGS step
    5    -436.2703685080      1.26e-03     00000  Normal BFGS step
    6    -436.2703788591      4.01e-04     00000  Normal BFGS step
    7    -436.2703805645      3.47e-05     00000  Normal BFGS step
    8    -436.2703805896      8.68e-06     00000  Normal BFGS step
    9    -436.2703805913      4.24e-07     00000  Normal BFGS step
   10    -436.2703805913      1.41e-06     00000  Normal BFGS step
   11    -436.2703805913      1.01e-06     00000  Normal BFGS step
   12    -436.2703805913      5.71e-08     00000  Normal BFGS step
   13    -436.2703805913      3.07e-08     00000  Normal BFGS step
   14    -436.2703805913      3.43e-09     00000 Convergence criterion met
Timing for Single Stationary Point: 1968.00s (wall), 15631.71s (cpu)
Begin Timing: Stability
===================================================
Beginning Test for Internal Stability
===================================================
generating davidson guess vectors based on koopmans excitations
    1      7.00e-01     00000 Davidson Iteration
    2      1.85e-01     00000 Davidson Iteration
    3      2.31e-02     00000 Davidson Iteration
    4      1.14e-02     00000 Davidson Iteration
    5      1.53e-03     00000 Davidson Iteration
    6      7.20e-04     00000 Davidson Iteration
    7      1.94e-04     00000 Davidson Iteration
    8      9.58e-05     00000 Davidson Iteration
    9      2.09e-02     00000 Davidson Iteration
   10      7.94e-03     00000 Davidson Iteration
   11      3.19e-03     00000 Davidson Iteration
   12      2.53e-03     00000 Davidson Iteration
   13      1.17e-03     00000 Davidson Iteration
   14      2.98e-04     00000 Davidson Iteration
   15      6.61e-05     00000 Davidson Converged
converged_eigenvalues
   0.1451
   0.1451
Threshold for negative eigenvalues: -1.0e-05
solution was a local minimum (stable)
===================================================
End Test for Internal Stability
===================================================
Our SCF solution is stable!
Timing for Total SCF: 4785.00s (wall), 38009.92s (cpu)
 Total energy in the final basis set =     -436.2703805913
<S^2> =         -0.000000000
    ==================================================
              The end of Object-Oriented SCFman       
    ==================================================
 
 --------------------------------------------------------------
 
                    Orbital Energies (a.u.)
 --------------------------------------------------------------
 
 Alpha MOs
 -- Occupied --
-88.743 -10.212  -7.913  -5.858  -5.858  -5.857  -0.815  -0.511
 -0.347  -0.347  -0.300
 -- Virtual --
 -0.107  -0.107  -0.002   0.011   0.020   0.020   0.035   0.044
  0.044   0.070   0.077   0.081   0.081   0.094   0.094   0.099
  0.123   0.123   0.132   0.135   0.135   0.147   0.147   0.168
  0.207   0.210   0.210   0.226   0.226   0.230   0.230   0.262
  0.262   0.262   0.262   0.266   0.268   0.268   0.270   0.279
  0.279   0.308   0.308   0.317   0.362   0.362   0.376   0.376
  0.377   0.383   0.424   0.424   0.428   0.428   0.460   0.470
  0.470   0.471   0.471   0.479   0.479   0.506   0.506   0.521
  0.521   0.539   0.539   0.539   0.539   0.541   0.571   0.571
  0.578   0.578   0.602   0.629   0.629   0.631   0.631   0.635
  0.636   0.636   0.668   0.668   0.681   0.681   0.692   0.703
  0.703   0.706   0.706   0.752   0.752   0.761   0.791   0.791
  0.802   0.824   0.824   0.889   0.897   0.897   0.998   0.998
  1.011   1.011   1.028   1.061   1.061   1.143   1.143   1.149
  1.238   1.293   1.293   1.305   1.305   1.391   1.391   1.426
  1.458   1.600   1.600   1.600   1.600   1.657   1.778   1.778
  1.999   1.999   2.085   2.085   2.169   2.172   2.172   2.231
  2.231   2.310   2.432   2.432   2.541   2.570   2.570   2.622
  2.622   2.631   2.631   2.757   2.918   2.918   2.943   3.269
  3.269   3.299   3.337   3.337   3.355   3.355   3.482   3.589
  3.589   3.722   3.921   3.921   4.088   4.088   4.141   4.141
  4.147   4.147   4.314   4.314   4.487   4.487   4.594   4.713
  4.713   4.916   4.932   4.932   4.943   4.943   5.297   5.297
  5.321   5.321   5.432   5.567   5.567   5.659   5.659   5.670
  5.670   5.849   5.914   5.951   5.951   6.208   6.489   6.489
  6.514   6.514   6.880   6.880   7.623   7.867   8.265   8.265
  8.317   8.317   8.543   8.543   8.708   8.708   9.261  10.350
 10.350  10.430  10.430  10.667  10.667  10.989  10.989  11.029
 11.029  11.050  11.156  11.156  11.285  11.285  11.459  11.459
 11.581  11.581  11.703  11.703  11.779  11.804  11.804  11.885
 11.885  11.888  11.888  12.118  12.118  12.293  12.683  12.683
 12.848  12.849  13.454  13.894  13.894  14.098  15.730  17.045
 17.045  17.466  17.466  17.991  17.991  18.455  19.414  30.137
 31.929  31.929  32.122  32.122  32.598  62.756  62.756  62.930
 62.930  63.495  73.655
 
 Beta MOs
 -- Occupied --
-88.743 -10.212  -7.913  -5.858  -5.858  -5.857  -0.815  -0.511
 -0.347  -0.347  -0.300
 -- Virtual --
 -0.107  -0.107  -0.002   0.011   0.020   0.020   0.035   0.044
  0.044   0.070   0.077   0.081   0.081   0.094   0.094   0.099
  0.123   0.123   0.132   0.135   0.135   0.147   0.147   0.168
  0.207   0.210   0.210   0.226   0.226   0.230   0.230   0.262
  0.262   0.262   0.262   0.266   0.268   0.268   0.270   0.279
  0.279   0.308   0.308   0.317   0.362   0.362   0.376   0.376
  0.377   0.383   0.424   0.424   0.428   0.428   0.460   0.470
  0.470   0.471   0.471   0.479   0.479   0.506   0.506   0.521
  0.521   0.539   0.539   0.539   0.539   0.541   0.571   0.571
  0.578   0.578   0.602   0.629   0.629   0.631   0.631   0.635
  0.636   0.636   0.668   0.668   0.681   0.681   0.692   0.703
  0.703   0.706   0.706   0.752   0.752   0.761   0.791   0.791
  0.802   0.824   0.824   0.889   0.897   0.897   0.998   0.998
  1.011   1.011   1.028   1.061   1.061   1.143   1.143   1.149
  1.238   1.293   1.293   1.305   1.305   1.391   1.391   1.426
  1.458   1.600   1.600   1.600   1.600   1.657   1.778   1.778
  1.999   1.999   2.085   2.085   2.169   2.172   2.172   2.231
  2.231   2.310   2.432   2.432   2.541   2.570   2.570   2.622
  2.622   2.631   2.631   2.757   2.918   2.918   2.943   3.269
  3.269   3.299   3.337   3.337   3.355   3.355   3.482   3.589
  3.589   3.722   3.921   3.921   4.088   4.088   4.141   4.141
  4.147   4.147   4.314   4.314   4.487   4.487   4.594   4.713
  4.713   4.916   4.932   4.932   4.943   4.943   5.297   5.297
  5.321   5.321   5.432   5.567   5.567   5.659   5.659   5.670
  5.670   5.849   5.914   5.951   5.951   6.208   6.489   6.489
  6.514   6.514   6.880   6.880   7.623   7.867   8.265   8.265
  8.317   8.317   8.543   8.543   8.708   8.708   9.261  10.350
 10.350  10.430  10.430  10.667  10.667  10.989  10.989  11.029
 11.029  11.050  11.156  11.156  11.285  11.285  11.459  11.459
 11.581  11.581  11.703  11.703  11.779  11.804  11.804  11.885
 11.885  11.888  11.888  12.118  12.118  12.293  12.683  12.683
 12.848  12.849  13.454  13.894  13.894  14.098  15.730  17.045
 17.045  17.466  17.466  17.991  17.991  18.455  19.414  30.137
 31.929  31.929  32.122  32.122  32.598  62.756  62.756  62.930
 62.930  63.495  73.655
 --------------------------------------------------------------
 
          Ground-State Mulliken Net Atomic Charges

     Atom                 Charge (a.u.)    Spin (a.u.)
  --------------------------------------------------------
      1 C                     0.462063       0.000000
      2 S                    -0.462063      -0.000000
  --------------------------------------------------------
  Sum of atomic charges =    -0.000000
  Sum of spin   charges =     0.000000

 -----------------------------------------------------------------
                    Cartesian Multipole Moments
 -----------------------------------------------------------------
    Charge (ESU x 10^10)
                -0.0000
    Dipole Moment (Debye)
         X       0.0000      Y      -0.0000      Z       1.9202
       Tot       1.9202
    Quadrupole Moments (Debye-Ang)
        XX     -18.1568     XY       0.0000     YY     -18.1568
        XZ       0.0000     YZ      -0.0000     ZZ     -16.3064
    Octopole Moments (Debye-Ang^2)
       XXX       0.0000    XXY      -0.0000    XYY       0.0000
       YYY      -0.0000    XXZ     -18.2583    XYZ       0.0000
       YYZ     -18.2583    XZZ       0.0000    YZZ      -0.0000
       ZZZ     -49.0020
    Hexadecapole Moments (Debye-Ang^3)
      XXXX     -22.8285   XXXY       0.0000   XXYY      -7.6095
      XYYY       0.0000   YYYY     -22.8285   XXXZ       0.0000
      XXYZ      -0.0000   XYYZ       0.0000   YYYZ      -0.0000
      XXZZ     -35.7877   XYZZ       0.0000   YYZZ     -35.7877
      XZZZ       0.0000   YZZZ      -0.0000   ZZZZ    -182.4205
 -----------------------------------------------------------------
Archival summary:
1\1\n0089.mhg0\SP\ProcedureUnspecified\BasisUnspecified\11\yhljason\ThuAug1304:29:532020ThuAug1304:29:532020\0\\#,ProcedureUnspecified,BasisUnspecified,\\0,1\C\S,1,1.5349\\\@

 Total job time:  4987.18s(wall), 39576.01s(cpu) 
 Thu Aug 13 04:29:53 2020

        *************************************************************
        *                                                           *
        *  Thank you very much for using Q-Chem.  Have a nice day.  *
        *                                                           *
        *************************************************************


