Q-Chem Developer Version!
                  Welcome to Q-Chem
     A Quantum Leap Into The Future Of Chemistry


 Q-Chem 5.1, Q-Chem, Inc., Pleasanton, CA (2018)

 Yihan Shao,  Zhengting Gan,  E. Epifanovsky,  A. T. B. Gilbert,  M. Wormit,  
 J. Kussmann,  A. W. Lange,  A. Behn,  Jia Deng,  Xintian Feng,  D. Ghosh,  
 M. Goldey,  P. R. Horn,  L. D. Jacobson,  I. Kaliman,  T. Kus,  A. Landau,  
 Jie Liu,  E. I. Proynov,  R. M. Richard,  R. P. Steele,  E. J. Sundstrom,  
 H. L. Woodcock III,  P. M. Zimmerman,  D. Zuev,  B. Albrecht,  E. Alguire,  
 S. A. Baeppler,  D. Barton,  Z. Benda,  Y. A. Bernard,  E. J. Berquist,  
 K. B. Bravaya,  H. Burton,  D. Casanova,  Chun-Min Chang,  Yunqing Chen,  
 A. Chien,  K. D. Closser,  M. P. Coons,  S. Coriani,  S. Dasgupta,  
 A. L. Dempwolff,  M. Diedenhofen,  Hainam Do,  R. G. Edgar,  Po-Tung Fang,  
 S. Faraji,  S. Fatehi,  Qingguo Feng,  K. D. Fenk,  J. Fosso-Tande,  
 Qinghui Ge,  A. Ghysels,  G. Gidofalvi,  J. Gomes,  J. Gonthier,  A. Gunina,  
 D. Hait,  M. W. D. Hanson-Heine,  P. H. P. Harbach,  A. W. Hauser,  
 J. E. Herr,  E. G. Hohenstein,  Z. C. Holden,  Kerwin Hui,  B. C. Huynh,  
 T.-C. Jagau,  Hyunjun Ji,  B. Kaduk,  K. Khistyaev,  Jaehoon Kim,  
 P. Klunzinger,  K. Koh,  D. Kosenkov,  L. Koulias,  T. Kowalczyk,  
 C. M. Krauter,  A. Kunitsa,  Ka Un Lao,  A. Laurent,  K. V. Lawler,  
 Joonho Lee,  D. Lefrancois,  S. Lehtola,  D. S. Levine,  Yi-Pei Li,  
 You-Sheng Lin,  Fenglai Liu,  E. Livshits,  A. Luenser,  P. Manohar,  
 E. Mansoor,  S. F. Manzer,  Shan-Ping Mao,  Yuezhi Mao,  N. Mardirossian,  
 A. V. Marenich,  T. Markovich,  L. A. Martinez-Martinez,  S. A. Maurer,  
 N. J. Mayhall,  S. C. McKenzie,  J.-M. Mewes,  A. F. Morrison,  
 J. W. Mullinax,  K. Nanda,  T. S. Nguyen-Beck,  R. Olivares-Amaya,  
 J. A. Parkhill,  T. M. Perrine,  F. Plasser,  P. Pokhilko,  S. Prager,  
 A. Prociuk,  E. Ramos,  D. R. Rehn,  F. Rob,  M. Schneider,  N. Sergueev,  
 S. M. Sharada,  S. Sharma,  D. W. Small,  T. Stauch,  T. Stein,  
 Yu-Chuan Su,  A. J. W. Thom,  A. Tkatchenko,  T. Tsuchimochi,  N. M. Tubman,  
 L. Vogt,  M. L. Vidal,  O. Vydrov,  M. A. Watson,  J. Wenzel,  
 M. de Wergifosse,  T. A. Wesolowski,  A. White,  J. Witte,  A. Yamada,  
 Jun Yang,  K. Yao,  S. Yeganeh,  S. R. Yost,  Zhi-Qiang You,  A. Zech,  
 Igor Ying Zhang,  Xing Zhang,  Yan Zhao,  Ying Zhu,  B. R. Brooks,  
 G. K. L. Chan,  C. J. Cramer,  M. S. Gordon,  W. J. Hehre,  A. Klamt,  
 M. W. Schmidt,  C. D. Sherrill,  D. G. Truhlar,  A. Aspuru-Guzik,  R. Baer,  
 A. T. Bell,  N. A. Besley,  Jeng-Da Chai,  A. E. DePrince, III,  
 R. A. DiStasio Jr.,  A. Dreuw,  B. D. Dunietz,  T. R. Furlani,  
 Chao-Ping Hsu,  Yousung Jung,  Jing Kong,  D. S. Lambrecht,  WanZhen Liang,  
 C. Ochsenfeld,  V. A. Rassolov,  L. V. Slipchenko,  J. E. Subotnik,  
 T. Van Voorhis,  J. M. Herbert,  A. I. Krylov,  P. M. W. Gill,  M. Head-Gordon

 Contributors to earlier versions of Q-Chem not listed above: 
 R. D. Adamson,  B. Austin,  J. Baker,  G. J. O. Beran,  K. Brandhorst,  
 S. T. Brown,  E. F. C. Byrd,  A. K. Chakraborty,  C.-L. Cheng,  
 Siu Hung Chien,  D. M. Chipman,  D. L. Crittenden,  H. Dachsel,  
 R. J. Doerksen,  A. D. Dutoi,  L. Fusti-Molnar,  W. A. Goddard III,  
 A. Golubeva-Zadorozhnaya,  S. R. Gwaltney,  G. Hawkins,  A. Heyden,  
 S. Hirata,  G. Kedziora,  F. J. Keil,  C. Kelley,  Jihan Kim,  R. A. King,  
 R. Z. Khaliullin,  P. P. Korambath,  W. Kurlancheek,  A. M. Lee,  M. S. Lee,  
 S. V. Levchenko,  Ching Yeh Lin,  D. Liotard,  R. C. Lochan,  I. Lotan,  
 P. E. Maslen,  N. Nair,  D. P. O'Neill,  D. Neuhauser,  E. Neuscamman,  
 C. M. Oana,  R. Olson,  B. Peters,  R. Peverati,  P. A. Pieniazek,  
 Y. M. Rhee,  J. Ritchie,  M. A. Rohrdanz,  E. Rosta,  N. J. Russ,  
 H. F. Schaefer III,  N. E. Schultz,  N. Shenvi,  A. C. Simmonett,  A. Sodt,  
 D. Stuck,  K. S. Thanthiriwatte,  V. Vanovschi,  Tao Wang,  A. Warshel,  
 C. F. Williams,  Q. Wu,  X. Xu,  W. Zhang

 Please cite Q-Chem as follows:
 Y. Shao et al., Mol. Phys. 113, 184-215 (2015)
 DOI: 10.1080/00268976.2014.952696

 Q-Chem 5.1.1 for Intel X86 EM64T Linux

 Parts of Q-Chem use Armadillo 8.300.2 (Tropical Shenanigans).
 http://arma.sourceforge.net/

 Q-Chem begins on Thu Aug 13 05:11:31 2020  

Host: n0060.mhg0
0

     Scratch files written to /local/scratch/users/yhljason/HCCCl_M06_aug-pc-4.inp20200812224620//
Input Ideriv = 2
Curr. Ideriv = -1
Max.  Ideriv = 2
Input Ideriv = 1
Curr. Ideriv = 2
Max.  Ideriv = 1

Checking the input file for inconsistencies... 	...done.

--------------------------------------------------------------
User input:
--------------------------------------------------------------
$molecule
0 1
C1      0.0000  0.0000  -1.8149
C2      0.0000  0.0000  -0.6116
Cl3     0.0000  0.0000  1.0252
H4      0.0000  0.0000  -2.8699
$end

$rem
jobtype sp
method M06
xc_grid 000099000590
basis aug-pc-4
max_scf_cycles 200
thresh 14
scf_convergence 8
scf_algorithm gdm
symmetry false
sym_ignore true
unrestricted true
gen_scfman true
internal_stability_iter 15
internal_stability_davidson_iter 200
mem_total 64000
mem_static 1500
n_frozen_core 0
$end


--------------------------------------------------------------
 ----------------------------------------------------------------
             Standard Nuclear Orientation (Angstroms)
    I     Atom           X                Y                Z
 ----------------------------------------------------------------
    1      C       0.0000000000     0.0000000000    -1.8149000000
    2      C       0.0000000000     0.0000000000    -0.6116000000
    3      Cl      0.0000000000     0.0000000000     1.0252000000
    4      H       0.0000000000     0.0000000000    -2.8699000000
 ----------------------------------------------------------------
 Nuclear Repulsion Energy =    74.5384189744 hartrees
 There are       15 alpha and       15 beta electrons
 Requested basis set is aug-pc-4
 There are 121 shells and 519 basis functions

 Total QAlloc Memory Limit  64000 MB
 Mega-Array Size      1467 MB
 MEM_STATIC part      1500 MB

                       Distance Matrix (Angstroms)
             C (  1)   C (  2)   Cl(  3)
   C (  2)  1.203300
   Cl(  3)  2.840100  1.636800
   H (  4)  1.055000  2.258300  3.895100
 
 A cutoff of  1.0D-14 yielded   7137 shell pairs
 There are    132677 function pairs (    253157 Cartesian)
 
 -------------------------------------------------------
 OpenMP Integral Computing Module                       
 Release: version 1.0, May 2013, Q-Chem Inc. Pittsburgh 
 -------------------------------------------------------
 Integral Job Info:
 Integral job number is                      11
 Integral operator is                         1
 short-range coefficients                     0
 long-range coefficients              100000000
 Omega coefficients                           0
 if combine SR and LR in K                    0
 Integral screening is                        0
 Integral computing path is                   2
 max size of driver memory is           6400000
 size of driver memory is               5498286
 size of scratch memory is             27847117
 max col of scratch BK array             194481
 max len of scratch array in speh3         5572
 max len of scratch index in speh4           72
 max int batch size is                      520
 min int batch size is                       52
 fixed nKL is                                 7
 max L of basis functions is                  5
 order of int derivative is                   0
 number of shells is                        121
 number of basis is                         715
 number of cartesian basis is               715
 number of contracted shell pairs          7137
 number of primitive shell pairs          20447
 maxK2 (contraction) of shell pair          225
 max number of K2 of shell pair               1
 max number of CS2 of shell pair            677
 max number of PS2 of shell pair           1012
 mem total for path MDJ                 1328182
 -------------------------------------------------------
 Smallest overlap matrix eigenvalue = 3.93E-08
 Linear dependence detected in AO basis
 Number of orthogonalized atomic orbitals = 512
 Maximum deviation from orthogonality = 1.524E-10

 Scale SEOQF with 1.000000e-01/1.000000e-01/1.000000e-01

 Standard Electronic Orientation quadrupole field applied
 Nucleus-field energy     =    -0.0000000052 hartrees
 Guess from superposition of atomic densities
 Warning:  Energy on first SCF cycle will be non-variational
 SAD guess density has 30.000000 electrons

 -----------------------------------------------------------------------
  General SCF calculation program by
  Eric Jon Sundstrom, Paul Horn, Yuezhi Mao, Dmitri Zuev, Alec White,
  David Stuck, Shaama M.S., Shane Yost, Joonho Lee, David Small,
  Daniel Levine, Susi Lehtola, Hugh Burton, Evgeny Epifanovsky
 -----------------------------------------------------------------------
 Exchange:     0.2700 Hartree-Fock + 1.0000 M06
 Correlation:  1.0000 M06
 Using Euler-Maclaurin-Lebedev (99,590) quadrature formula
Running Object-Oriented UKS (UHF)
performing a single roothaan step with Fock from read density so that orbitals are available to all algorithms
 LTot/LBra/LKet=          20          10          10
 LTot/LBra/LKet=          20          10          10
 LTot/LBra/LKet=          20          10          10
 LTot/LBra/LKet=          20          10          10
 LTot/LBra/LKet=          20          10          10

 Q-Chem warning:

 in GenH1, ket side, handled with new code


 Q-Chem warning:

 in GenH1, ket side, handled with new code

 LTot/LBra/LKet=          19           9          10

 Q-Chem warning:

 in GenH1, ket side, handled with new code


 Q-Chem warning:

 in GenH1, ket side, handled with new code


 Q-Chem warning:

 in GenH1, ket side, handled with new code


 Q-Chem warning:

 in GenH1, ket side, handled with new code

 LTot/LBra/LKet=          19           9          10
 LTot/LBra/LKet=          19           9          10

 Q-Chem warning:

 in GenH1, ket side, handled with new code


 Q-Chem warning:

 in GenH1, ket side, handled with new code

 LTot/LBra/LBra=          19           9           9

 Q-Chem warning:

 in GenH1, bra side, handled with new code

energy of the guess density (C=0) -537.408884358839
We will preform up to 15 macro iterations over saddle points until a stable solution is found
Energy prior to optimization (guess energy) = -536.839118729675
Begin Timing: Total SCF Calculation
Begin Timing: SCF Single Stationary Point Calculation
begin iterations for algorithm: GDM          
the SCF tolerance is set to 1.00e-08
    1    -536.8391187297      1.08e-01     00000  Descent step
    2    -536.8943018649      9.36e-02     00000  Normal BFGS step
    3    -536.9067461696      3.74e-02     00000  Normal BFGS step
    4    -536.9114805696      1.96e-02     00000  Normal BFGS step
    5    -536.9151467324      6.09e-03     00000  Normal BFGS step
    6    -536.9153610323      1.70e-03     00000  Normal BFGS step
    7    -536.9154308042      4.34e-04     00000  Normal BFGS step
    8    -536.9154319837      3.31e-04     00000  Normal BFGS step
    9    -536.9154328720      6.61e-05     00000  Normal BFGS step
   10    -536.9154328988      2.20e-05     00000  Normal BFGS step
   11    -536.9154329016      6.52e-06     00000  Normal BFGS step
   12    -536.9154329025      6.48e-06     00000  Normal BFGS step
   13    -536.9154328985      1.60e-05     00000 Line search: overstep
   14    -536.9154329026      5.27e-06     00000  Normal BFGS step
   15    -536.9154329028      1.66e-06     00000  Normal BFGS step
   16    -536.9154329028      6.70e-07     00000  Normal BFGS step
   17    -536.9154329028      9.70e-07     00000  Normal BFGS step
   18    -536.9154329025      4.67e-06     00000  Normal BFGS step
   19    -536.9154329028      1.58e-06     00000  Normal BFGS step
   20    -536.9154329028      5.02e-06     00000  Normal BFGS step
   21    -536.9154329028      2.28e-06     00000  Normal BFGS step
   22    -536.9154329028      2.63e-06     00000  Normal BFGS step
   23    -536.9154329028      2.39e-07     00000  Normal BFGS step
   24    -536.9154329028      1.09e-06     00000  Normal BFGS step
   25    -536.9154329028      4.35e-07     00000  Normal BFGS step
   26    -536.9154329028      5.03e-07     00000  Normal BFGS step
   27    -536.9154329028      1.21e-07     00000  Normal BFGS step
   28    -536.9154329028      3.07e-07     00000  Normal BFGS step
   29    -536.9154329028      2.95e-07     00000  Normal BFGS step
   30    -536.9154329028      6.52e-07     00000  Normal BFGS step
   31    -536.9154329028      1.01e-07     00000  Normal BFGS step
   32    -536.9154329028      2.46e-07     00000  Normal BFGS step
   33    -536.9154329028      3.94e-08     00000  Normal BFGS step
   34    -536.9154329028      1.07e-07     00000  Normal BFGS step
   35    -536.9154329028      6.70e-09     00000 Convergence criterion met
Timing for Single Stationary Point: 38234.00s (wall), 303850.93s (cpu)
Begin Timing: Stability
===================================================
Beginning Test for Internal Stability
===================================================
generating davidson guess vectors based on koopmans excitations
    1      8.55e-01     00000 Davidson Iteration
    2      6.44e-01     00000 Davidson Iteration
    3      4.39e-01     00000 Davidson Iteration
    4      2.06e-01     00000 Davidson Iteration
    5      3.05e-01     00000 Davidson Iteration
    6      2.81e-01     00000 Davidson Iteration
    7      1.83e-01     00000 Davidson Iteration
    8      1.12e-01     00000 Davidson Iteration
    9      5.52e-02     00000 Davidson Iteration
   10      5.05e-02     00000 Davidson Iteration
   11      2.67e-02     00000 Davidson Iteration
   12      4.07e-03     00000 Davidson Iteration
   13      2.73e-03     00000 Davidson Iteration
   14      3.29e-03     00000 Davidson Iteration
   15      1.78e-03     00000 Davidson Iteration
   16      1.22e-03     00000 Davidson Iteration
   17      1.04e-03     00000 Davidson Iteration
   18      1.50e-03     00000 Davidson Iteration
   19      3.24e-03     00000 Davidson Iteration
   20      1.56e-03     00000 Davidson Iteration
   21      8.72e-04     00000 Davidson Iteration
   22      8.61e-04     00000 Davidson Iteration
   23      7.29e-04     00000 Davidson Iteration
   24      5.58e-04     00000 Davidson Iteration
   25      4.54e-04     00000 Davidson Iteration
   26      6.76e-04     00000 Davidson Iteration
   27      3.92e-04     00000 Davidson Iteration
   28      3.80e-04     00000 Davidson Iteration
   29      4.04e-04     00000 Davidson Iteration
   30      4.43e-04     00000 Davidson Iteration
   31      4.63e-04     00000 Davidson Iteration
   32      4.98e-04     00000 Davidson Iteration
   33      3.39e-04     00000 Davidson Iteration
   34      2.25e-04     00000 Davidson Iteration
   35      7.60e-05     00000 Davidson Iteration
   36      3.99e-04     00000 Davidson Iteration
   37      3.54e-04     00000 Davidson Iteration
   38      3.47e-04     00000 Davidson Iteration
   39      3.50e-04     00000 Davidson Iteration
   40      3.64e-04     00000 Davidson Iteration
   41      2.99e-04     00000 Davidson Iteration
   42      1.59e-04     00000 Davidson Iteration
   43      7.46e-05     00000 Davidson Converged
converged_eigenvalues
   0.2579
   0.3402
Threshold for negative eigenvalues: -1.0e-05
solution was a local minimum (stable)
===================================================
End Test for Internal Stability
===================================================
Our SCF solution is stable!
Timing for Total SCF: 103254.00s (wall), 820482.56s (cpu)
 Total energy in the final basis set =     -536.9154329028
<S^2> =         -0.000000000
    ==================================================
              The end of Object-Oriented SCFman       
    ==================================================
 
 --------------------------------------------------------------
 
                    Orbital Energies (a.u.)
 --------------------------------------------------------------
 
 Alpha MOs
 -- Occupied --
******* -10.296 -10.251  -9.634  -7.342  -7.332  -7.332  -0.929
 -0.757  -0.569  -0.513  -0.415  -0.415  -0.293  -0.293
 -- Virtual --
 -0.038  -0.024  -0.015  -0.015  -0.004   0.007   0.007   0.023
  0.023   0.026   0.037   0.037   0.037   0.041   0.047   0.048
  0.048   0.062   0.062   0.069   0.072   0.072   0.078   0.078
  0.103   0.110   0.110   0.127   0.128   0.128   0.131   0.143
  0.143   0.143   0.143   0.144   0.164   0.164   0.172   0.185
  0.186   0.186   0.191   0.191   0.200   0.200   0.223   0.223
  0.223   0.223   0.230   0.230   0.248   0.254   0.254   0.260
  0.260   0.269   0.274   0.281   0.288   0.288   0.295   0.295
  0.300   0.300   0.312   0.330   0.330   0.336   0.337   0.339
  0.339   0.346   0.363   0.363   0.372   0.372   0.383   0.414
  0.414   0.427   0.427   0.433   0.433   0.441   0.441   0.451
  0.456   0.456   0.458   0.458   0.467   0.468   0.477   0.485
  0.485   0.488   0.489   0.504   0.513   0.513   0.517   0.530
  0.531   0.531   0.535   0.535   0.572   0.572   0.576   0.576
  0.592   0.595   0.595   0.596   0.596   0.600   0.600   0.635
  0.635   0.644   0.644   0.651   0.675   0.675   0.676   0.676
  0.680   0.693   0.693   0.697   0.698   0.701   0.719   0.719
  0.750   0.750   0.765   0.765   0.777   0.785   0.785   0.793
  0.793   0.797   0.797   0.819   0.819   0.820   0.822   0.822
  0.853   0.862   0.862   0.870   0.880   0.880   0.915   0.915
  0.932   0.933   0.938   0.938   0.950   0.971   0.972   0.972
  0.974   0.974   1.014   1.048   1.048   1.048   1.048   1.072
  1.074   1.074   1.125   1.125   1.151   1.155   1.155   1.194
  1.261   1.261   1.285   1.302   1.302   1.319   1.319   1.420
  1.420   1.428   1.428   1.442   1.442   1.460   1.536   1.536
  1.549   1.549   1.557   1.576   1.576   1.668   1.740   1.834
  1.834   1.862   1.896   1.896   1.927   1.927   1.949   2.012
  2.012   2.021   2.071   2.072   2.072   2.101   2.101   2.191
  2.197   2.197   2.297   2.297   2.299   2.299   2.418   2.418
  2.418   2.547   2.564   2.564   2.638   2.638   2.707   2.707
  2.742   2.757   2.757   2.926   2.926   2.933   2.933   2.993
  3.015   3.015   3.093   3.093   3.143   3.268   3.354   3.354
  3.480   3.494   3.494   3.538   3.538   3.625   3.625   3.718
  3.730   3.730   3.762   3.762   3.931   3.931   3.933   3.933
  3.938   3.938   4.028   4.029   4.029   4.101   4.160   4.160
  4.180   4.180   4.236   4.259   4.259   4.281   4.281   4.294
  4.294   4.321   4.500   4.500   4.550   4.550   4.603   4.603
  4.634   4.698   4.774   4.774   4.833   4.833   4.978   5.011
  5.011   5.070   5.070   5.084   5.084   5.092   5.110   5.110
  5.402   5.465   5.465   5.539   5.539   5.635   5.728   5.728
  5.733   5.733   5.893   5.980   5.980   6.046   6.046   6.104
  6.104   6.215   6.321   6.321   6.411   6.411   6.420   6.475
  6.475   6.802   6.913   6.913   7.052   7.052   7.186   7.423
  7.423   7.670   7.816   7.816   7.845   8.266   8.266   8.345
  8.581   8.736   8.736   8.920   8.920   9.161   9.161   9.216
  9.216   9.498   9.499   9.586   9.634   9.829   9.829  10.035
 10.036  10.046  10.046  10.160  10.160  10.300  10.300  10.317
 10.317  10.360  10.440  10.440  10.546  10.546  10.658  10.707
 10.707  10.856  10.856  10.870  10.870  11.087  11.289  11.289
 11.319  11.319  11.441  11.441  11.563  11.611  11.611  11.719
 11.719  11.727  11.727  11.730  11.730  11.782  11.782  11.878
 11.878  11.994  11.994  12.001  12.001  12.151  12.151  12.229
 12.282  12.282  12.416  12.709  12.709  12.764  12.764  12.836
 12.836  13.035  13.035  13.072  13.072  13.130  13.160  13.160
 13.587  13.587  13.610  13.720  13.867  13.867  14.014  14.014
 14.692  15.025  15.025  15.184  16.003  16.003  16.388  16.778
 16.778  16.888  16.888  17.308  17.308  17.429  17.677  17.939
 17.939  18.274  18.274  18.341  18.426  18.426  18.910  18.910
 19.398  19.480  19.480  20.199  20.679  20.679  21.699  23.751
 24.113  24.113  24.972  32.202  32.202  32.364  32.364  32.592
 32.592  33.706  33.706  34.094  35.614  40.663  43.071  66.491
 66.491  66.667  66.667  67.106  76.146  77.005  89.398  90.862
 90.862
 
 Beta MOs
 -- Occupied --
******* -10.296 -10.251  -9.634  -7.342  -7.332  -7.332  -0.929
 -0.757  -0.569  -0.513  -0.415  -0.415  -0.293  -0.293
 -- Virtual --
 -0.038  -0.024  -0.015  -0.015  -0.004   0.007   0.007   0.023
  0.023   0.026   0.037   0.037   0.037   0.041   0.047   0.048
  0.048   0.062   0.062   0.069   0.072   0.072   0.078   0.078
  0.103   0.110   0.110   0.127   0.128   0.128   0.131   0.143
  0.143   0.143   0.143   0.144   0.164   0.164   0.172   0.185
  0.186   0.186   0.191   0.191   0.200   0.200   0.223   0.223
  0.223   0.223   0.230   0.230   0.248   0.254   0.254   0.260
  0.260   0.269   0.274   0.281   0.288   0.288   0.295   0.295
  0.300   0.300   0.312   0.330   0.330   0.336   0.337   0.339
  0.339   0.346   0.363   0.363   0.372   0.372   0.383   0.414
  0.414   0.427   0.427   0.433   0.433   0.441   0.441   0.451
  0.456   0.456   0.458   0.458   0.467   0.468   0.477   0.485
  0.485   0.488   0.489   0.504   0.513   0.513   0.517   0.530
  0.531   0.531   0.535   0.535   0.572   0.572   0.576   0.576
  0.592   0.595   0.595   0.596   0.596   0.600   0.600   0.635
  0.635   0.644   0.644   0.651   0.675   0.675   0.676   0.676
  0.680   0.693   0.693   0.697   0.698   0.701   0.719   0.719
  0.750   0.750   0.765   0.765   0.777   0.785   0.785   0.793
  0.793   0.797   0.797   0.819   0.819   0.820   0.822   0.822
  0.853   0.862   0.862   0.870   0.880   0.880   0.915   0.915
  0.932   0.933   0.938   0.938   0.950   0.971   0.972   0.972
  0.974   0.974   1.014   1.048   1.048   1.048   1.048   1.072
  1.074   1.074   1.125   1.125   1.151   1.155   1.155   1.194
  1.261   1.261   1.285   1.302   1.302   1.319   1.319   1.420
  1.420   1.428   1.428   1.442   1.442   1.460   1.536   1.536
  1.549   1.549   1.557   1.576   1.576   1.668   1.740   1.834
  1.834   1.862   1.896   1.896   1.927   1.927   1.949   2.012
  2.012   2.021   2.071   2.072   2.072   2.101   2.101   2.191
  2.197   2.197   2.297   2.297   2.299   2.299   2.418   2.418
  2.418   2.547   2.564   2.564   2.638   2.638   2.707   2.707
  2.742   2.757   2.757   2.926   2.926   2.933   2.933   2.993
  3.015   3.015   3.093   3.093   3.143   3.268   3.354   3.354
  3.480   3.494   3.494   3.538   3.538   3.625   3.625   3.718
  3.730   3.730   3.762   3.762   3.931   3.931   3.933   3.933
  3.938   3.938   4.028   4.029   4.029   4.101   4.160   4.160
  4.180   4.180   4.236   4.259   4.259   4.281   4.281   4.294
  4.294   4.321   4.500   4.500   4.550   4.550   4.603   4.603
  4.634   4.698   4.774   4.774   4.833   4.833   4.978   5.011
  5.011   5.070   5.070   5.084   5.084   5.092   5.110   5.110
  5.402   5.465   5.465   5.539   5.539   5.635   5.728   5.728
  5.733   5.733   5.893   5.980   5.980   6.046   6.046   6.104
  6.104   6.215   6.321   6.321   6.411   6.411   6.420   6.475
  6.475   6.802   6.913   6.913   7.052   7.052   7.186   7.423
  7.423   7.670   7.816   7.816   7.845   8.266   8.266   8.345
  8.581   8.736   8.736   8.920   8.920   9.161   9.161   9.216
  9.216   9.498   9.499   9.586   9.634   9.829   9.829  10.035
 10.036  10.046  10.046  10.160  10.160  10.300  10.300  10.317
 10.317  10.360  10.440  10.440  10.546  10.546  10.658  10.707
 10.707  10.856  10.856  10.870  10.870  11.087  11.289  11.289
 11.319  11.319  11.441  11.441  11.563  11.611  11.611  11.719
 11.719  11.727  11.727  11.730  11.730  11.782  11.782  11.878
 11.878  11.994  11.994  12.001  12.001  12.151  12.151  12.229
 12.282  12.282  12.416  12.709  12.709  12.764  12.764  12.836
 12.836  13.035  13.035  13.072  13.072  13.130  13.160  13.160
 13.587  13.587  13.610  13.720  13.867  13.867  14.014  14.014
 14.692  15.025  15.025  15.184  16.003  16.003  16.388  16.778
 16.778  16.888  16.888  17.308  17.308  17.429  17.677  17.939
 17.939  18.274  18.274  18.341  18.426  18.426  18.910  18.910
 19.398  19.480  19.480  20.199  20.679  20.679  21.699  23.751
 24.113  24.113  24.972  32.202  32.202  32.364  32.364  32.592
 32.592  33.706  33.706  34.094  35.614  40.663  43.071  66.491
 66.491  66.667  66.667  67.106  76.146  77.005  89.398  90.862
 90.862
 --------------------------------------------------------------
 
          Ground-State Mulliken Net Atomic Charges

     Atom                 Charge (a.u.)    Spin (a.u.)
  --------------------------------------------------------
      1 C                    -0.027847       0.000000
      2 C                    -0.160060       0.000000
      3 Cl                   -0.739129       0.000000
      4 H                     0.927035      -0.000001
  --------------------------------------------------------
  Sum of atomic charges =    -0.000000
  Sum of spin   charges =     0.000000

 -----------------------------------------------------------------
                    Cartesian Multipole Moments
 -----------------------------------------------------------------
    Charge (ESU x 10^10)
                -0.0000
    Dipole Moment (Debye)
         X       0.0000      Y      -0.0000      Z      -0.3150
       Tot       0.3150
    Quadrupole Moments (Debye-Ang)
        XX     -24.6800     XY      -0.0000     YY     -24.6800
        XZ       0.0000     YZ       0.0000     ZZ     -17.9846
    Octopole Moments (Debye-Ang^2)
       XXX       0.0000    XXY      -0.0000    XYY       0.0000
       YYY      -0.0000    XXZ       3.7867    XYZ      -0.0000
       YYZ       3.7867    XZZ       0.0000    YZZ      -0.0000
       ZZZ      -6.5900
    Hexadecapole Moments (Debye-Ang^3)
      XXXX     -28.2471   XXXY      -0.0000   XXYY      -9.4157
      XYYY      -0.0000   YYYY     -28.2471   XXXZ       0.0000
      XXYZ      -0.0000   XYYZ       0.0000   YYYZ      -0.0000
      XXZZ     -49.7497   XYZZ       0.0000   YYZZ     -49.7497
      XZZZ      -0.0000   YZZZ       0.0000   ZZZZ    -181.6027
 -----------------------------------------------------------------
Archival summary:
1\1\n0060.mhg0\SP\ProcedureUnspecified\BasisUnspecified\l121\yhljason\FriAug1410:13:532020FriAug1410:13:532020\0\\#,ProcedureUnspecified,BasisUnspecified,\\0,1\Cl\C,1,1.6368\C,2,1.2033,1,180\H,3,1.055,2,180,1,0,0\\\@

 Total job time:  104542.42s(wall), 830612.57s(cpu) 
 Fri Aug 14 10:13:53 2020

        *************************************************************
        *                                                           *
        *  Thank you very much for using Q-Chem.  Have a nice day.  *
        *                                                           *
        *************************************************************


