Q-Chem Developer Version!
                  Welcome to Q-Chem
     A Quantum Leap Into The Future Of Chemistry


 Q-Chem 5.1, Q-Chem, Inc., Pleasanton, CA (2018)

 Yihan Shao,  Zhengting Gan,  E. Epifanovsky,  A. T. B. Gilbert,  M. Wormit,  
 J. Kussmann,  A. W. Lange,  A. Behn,  Jia Deng,  Xintian Feng,  D. Ghosh,  
 M. Goldey,  P. R. Horn,  L. D. Jacobson,  I. Kaliman,  T. Kus,  A. Landau,  
 Jie Liu,  E. I. Proynov,  R. M. Richard,  R. P. Steele,  E. J. Sundstrom,  
 H. L. Woodcock III,  P. M. Zimmerman,  D. Zuev,  B. Albrecht,  E. Alguire,  
 S. A. Baeppler,  D. Barton,  Z. Benda,  Y. A. Bernard,  E. J. Berquist,  
 K. B. Bravaya,  H. Burton,  D. Casanova,  Chun-Min Chang,  Yunqing Chen,  
 A. Chien,  K. D. Closser,  M. P. Coons,  S. Coriani,  S. Dasgupta,  
 A. L. Dempwolff,  M. Diedenhofen,  Hainam Do,  R. G. Edgar,  Po-Tung Fang,  
 S. Faraji,  S. Fatehi,  Qingguo Feng,  K. D. Fenk,  J. Fosso-Tande,  
 Qinghui Ge,  A. Ghysels,  G. Gidofalvi,  J. Gomes,  J. Gonthier,  A. Gunina,  
 D. Hait,  M. W. D. Hanson-Heine,  P. H. P. Harbach,  A. W. Hauser,  
 J. E. Herr,  E. G. Hohenstein,  Z. C. Holden,  Kerwin Hui,  B. C. Huynh,  
 T.-C. Jagau,  Hyunjun Ji,  B. Kaduk,  K. Khistyaev,  Jaehoon Kim,  
 P. Klunzinger,  K. Koh,  D. Kosenkov,  L. Koulias,  T. Kowalczyk,  
 C. M. Krauter,  A. Kunitsa,  Ka Un Lao,  A. Laurent,  K. V. Lawler,  
 Joonho Lee,  D. Lefrancois,  S. Lehtola,  D. S. Levine,  Yi-Pei Li,  
 You-Sheng Lin,  Fenglai Liu,  E. Livshits,  A. Luenser,  P. Manohar,  
 E. Mansoor,  S. F. Manzer,  Shan-Ping Mao,  Yuezhi Mao,  N. Mardirossian,  
 A. V. Marenich,  T. Markovich,  L. A. Martinez-Martinez,  S. A. Maurer,  
 N. J. Mayhall,  S. C. McKenzie,  J.-M. Mewes,  A. F. Morrison,  
 J. W. Mullinax,  K. Nanda,  T. S. Nguyen-Beck,  R. Olivares-Amaya,  
 J. A. Parkhill,  T. M. Perrine,  F. Plasser,  P. Pokhilko,  S. Prager,  
 A. Prociuk,  E. Ramos,  D. R. Rehn,  F. Rob,  M. Schneider,  N. Sergueev,  
 S. M. Sharada,  S. Sharma,  D. W. Small,  T. Stauch,  T. Stein,  
 Yu-Chuan Su,  A. J. W. Thom,  A. Tkatchenko,  T. Tsuchimochi,  N. M. Tubman,  
 L. Vogt,  M. L. Vidal,  O. Vydrov,  M. A. Watson,  J. Wenzel,  
 M. de Wergifosse,  T. A. Wesolowski,  A. White,  J. Witte,  A. Yamada,  
 Jun Yang,  K. Yao,  S. Yeganeh,  S. R. Yost,  Zhi-Qiang You,  A. Zech,  
 Igor Ying Zhang,  Xing Zhang,  Yan Zhao,  Ying Zhu,  B. R. Brooks,  
 G. K. L. Chan,  C. J. Cramer,  M. S. Gordon,  W. J. Hehre,  A. Klamt,  
 M. W. Schmidt,  C. D. Sherrill,  D. G. Truhlar,  A. Aspuru-Guzik,  R. Baer,  
 A. T. Bell,  N. A. Besley,  Jeng-Da Chai,  A. E. DePrince, III,  
 R. A. DiStasio Jr.,  A. Dreuw,  B. D. Dunietz,  T. R. Furlani,  
 Chao-Ping Hsu,  Yousung Jung,  Jing Kong,  D. S. Lambrecht,  WanZhen Liang,  
 C. Ochsenfeld,  V. A. Rassolov,  L. V. Slipchenko,  J. E. Subotnik,  
 T. Van Voorhis,  J. M. Herbert,  A. I. Krylov,  P. M. W. Gill,  M. Head-Gordon

 Contributors to earlier versions of Q-Chem not listed above: 
 R. D. Adamson,  B. Austin,  J. Baker,  G. J. O. Beran,  K. Brandhorst,  
 S. T. Brown,  E. F. C. Byrd,  A. K. Chakraborty,  C.-L. Cheng,  
 Siu Hung Chien,  D. M. Chipman,  D. L. Crittenden,  H. Dachsel,  
 R. J. Doerksen,  A. D. Dutoi,  L. Fusti-Molnar,  W. A. Goddard III,  
 A. Golubeva-Zadorozhnaya,  S. R. Gwaltney,  G. Hawkins,  A. Heyden,  
 S. Hirata,  G. Kedziora,  F. J. Keil,  C. Kelley,  Jihan Kim,  R. A. King,  
 R. Z. Khaliullin,  P. P. Korambath,  W. Kurlancheek,  A. M. Lee,  M. S. Lee,  
 S. V. Levchenko,  Ching Yeh Lin,  D. Liotard,  R. C. Lochan,  I. Lotan,  
 P. E. Maslen,  N. Nair,  D. P. O'Neill,  D. Neuhauser,  E. Neuscamman,  
 C. M. Oana,  R. Olson,  B. Peters,  R. Peverati,  P. A. Pieniazek,  
 Y. M. Rhee,  J. Ritchie,  M. A. Rohrdanz,  E. Rosta,  N. J. Russ,  
 H. F. Schaefer III,  N. E. Schultz,  N. Shenvi,  A. C. Simmonett,  A. Sodt,  
 D. Stuck,  K. S. Thanthiriwatte,  V. Vanovschi,  Tao Wang,  A. Warshel,  
 C. F. Williams,  Q. Wu,  X. Xu,  W. Zhang

 Please cite Q-Chem as follows:
 Y. Shao et al., Mol. Phys. 113, 184-215 (2015)
 DOI: 10.1080/00268976.2014.952696

 Q-Chem 5.1.1 for Intel X86 EM64T Linux

 Parts of Q-Chem use Armadillo 8.300.2 (Tropical Shenanigans).
 http://arma.sourceforge.net/

 Q-Chem begins on Wed Aug 12 18:43:26 2020  

Host: n0047.mhg0
0

     Scratch files written to /local/scratch/users/yhljason/LiCN_HFLYP_aug-pc-4.inp20200812150654//
Input Ideriv = 2
Curr. Ideriv = -1
Max.  Ideriv = 2

Checking the input file for inconsistencies... 	...done.

--------------------------------------------------------------
User input:
--------------------------------------------------------------
$molecule
0 1
     Li        1.4157454937   -0.6164252897    0.0000000000
        C        -0.6780148225   -0.3855159545    0.0000000000
        N        -0.0211306712    0.6069412443    0.0000000000
$end

$rem
jobtype sp
method HFLYP
xc_grid 000099000590
basis aug-pc-4
max_scf_cycles 200
thresh 14
scf_convergence 8
scf_algorithm gdm
symmetry false
sym_ignore true
unrestricted true
gen_scfman true
internal_stability_iter 15
internal_stability_davidson_iter 200
mem_total 64000
mem_static 1500
n_frozen_core 0
$end


--------------------------------------------------------------
 ----------------------------------------------------------------
             Standard Nuclear Orientation (Angstroms)
    I     Atom           X                Y                Z
 ----------------------------------------------------------------
    1      Li      1.4157454937    -0.6164252897     0.0000000000
    2      C      -0.6780148225    -0.3855159545     0.0000000000
    3      N      -0.0211306712     0.6069412443     0.0000000000
 ----------------------------------------------------------------
 Nuclear Repulsion Energy =    29.0850278676 hartrees
 There are        8 alpha and        8 beta electrons
 Requested basis set is aug-pc-4
 There are 89 shells and 373 basis functions

 Total QAlloc Memory Limit  64000 MB
 Mega-Array Size      1467 MB
 MEM_STATIC part      1500 MB

                       Distance Matrix (Angstroms)
             Li(  1)   C (  2)
   C (  2)  2.106455
   N (  3)  1.887124  1.190155
 
 A cutoff of  1.0D-14 yielded   4005 shell pairs
 There are     70733 function pairs (    133836 Cartesian)
 
 -------------------------------------------------------
 OpenMP Integral Computing Module                       
 Release: version 1.0, May 2013, Q-Chem Inc. Pittsburgh 
 -------------------------------------------------------
 Integral Job Info:
 Integral job number is                      11
 Integral operator is                         1
 short-range coefficients                     0
 long-range coefficients              100000000
 Omega coefficients                           0
 if combine SR and LR in K                    0
 Integral screening is                        0
 Integral computing path is                   2
 max size of driver memory is           6400000
 size of driver memory is               5498286
 size of scratch memory is             28689500
 max col of scratch BK array             194481
 max len of scratch array in speh3         5572
 max len of scratch index in speh4           72
 max int batch size is                      520
 min int batch size is                       52
 fixed nKL is                                20
 max L of basis functions is                  5
 order of int derivative is                   0
 number of shells is                         89
 number of basis is                         512
 number of cartesian basis is               512
 number of contracted shell pairs          4005
 number of primitive shell pairs          11365
 maxK2 (contraction) of shell pair          144
 max number of K2 of shell pair               1
 max number of CS2 of shell pair            379
 max number of PS2 of shell pair            473
 mem total for path MDJ                  998666
 -------------------------------------------------------
 Smallest overlap matrix eigenvalue = 8.82E-07
 Linear dependence detected in AO basis
 Number of orthogonalized atomic orbitals = 372
 Maximum deviation from orthogonality = 5.911E-11

 Scale SEOQF with 1.000000e-01/1.000000e-01/1.000000e-01

 Standard Electronic Orientation quadrupole field applied
 Nucleus-field energy     =     0.0000000006 hartrees
 Guess from superposition of atomic densities
 Warning:  Energy on first SCF cycle will be non-variational
 SAD guess density has 16.000000 electrons

 -----------------------------------------------------------------------
  General SCF calculation program by
  Eric Jon Sundstrom, Paul Horn, Yuezhi Mao, Dmitri Zuev, Alec White,
  David Stuck, Shaama M.S., Shane Yost, Joonho Lee, David Small,
  Daniel Levine, Susi Lehtola, Hugh Burton, Evgeny Epifanovsky
 -----------------------------------------------------------------------
 Exchange:     1.0000 Hartree-Fock
 Correlation:  1.0000 LYP
 Using Euler-Maclaurin-Lebedev (99,590) quadrature formula
Running Object-Oriented UKS (UHF)
performing a single roothaan step with Fock from read density so that orbitals are available to all algorithms
 LTot/LBra/LKet=          18           9           9
 LTot/LBra/LKet=          18           9           9

 Q-Chem warning:

 in GenH1, ket side, handled with new code

 LTot/LBra/LKet=          18           9           9

 Q-Chem warning:

 in GenH1, ket side, handled with new code


 Q-Chem warning:

 in GenH1, ket side, handled with new code

 LTot/LBra/LBra=          18           9           9

 Q-Chem warning:

 in GenH1, bra side, handled with new code

energy of the guess density (C=0) -100.354491644909
We will preform up to 15 macro iterations over saddle points until a stable solution is found
Energy prior to optimization (guess energy) = -100.298731377870
Begin Timing: Total SCF Calculation
Begin Timing: SCF Single Stationary Point Calculation
begin iterations for algorithm: GDM          
the SCF tolerance is set to 1.00e-08
    1    -100.2987313779      5.58e-02     00000  Descent step
    2    -100.3185722334      4.27e-02     00000  Normal BFGS step
    3    -100.3372914796      5.95e-03     00000  Normal BFGS step
    4    -100.3376592975      1.27e-03     00000  Normal BFGS step
    5    -100.3377047879      2.28e-04     00000  Normal BFGS step
    6    -100.3377068653      8.56e-05     00000  Normal BFGS step
    7    -100.3377071382      3.51e-05     00000  Normal BFGS step
    8    -100.3377071669      2.00e-05     00000  Normal BFGS step
    9    -100.3377071763      4.83e-06     00000  Normal BFGS step
   10    -100.3377071773      1.76e-06     00000  Normal BFGS step
   11    -100.3377071775      8.73e-07     00000  Normal BFGS step
   12    -100.3377071775      4.44e-07     00000  Normal BFGS step
   13    -100.3377071775      1.12e-07     00000  Normal BFGS step
   14    -100.3377071775      3.37e-08     00000  Normal BFGS step
   15    -100.3377071775      7.39e-09     00000 Convergence criterion met
Timing for Single Stationary Point: 3441.00s (wall), 27391.38s (cpu)
Begin Timing: Stability
===================================================
Beginning Test for Internal Stability
===================================================
generating davidson guess vectors based on koopmans excitations
    1      3.24e-01     00000 Davidson Iteration
    2      2.21e-01     00000 Davidson Iteration
    3      1.71e-01     00000 Davidson Iteration
    4      6.85e-02     00000 Davidson Iteration
    5      6.85e-02     00000 Davidson Iteration
    6      6.91e-02     00000 Davidson Iteration
    7      8.10e-02     00000 Davidson Iteration
    8      7.97e-02     00000 Davidson Iteration
    9      4.80e-02     00000 Davidson Iteration
   10      6.86e-02     00000 Davidson Iteration
   11      5.03e-02     00000 Davidson Iteration
   12      1.23e-02     00000 Davidson Iteration
   13      3.58e-03     00000 Davidson Iteration
   14      2.34e-03     00000 Davidson Iteration
   15      6.07e-04     00000 Davidson Iteration
   16      2.55e-04     00000 Davidson Iteration
   17      8.63e-05     00000 Davidson Iteration
   18      4.32e-04     00000 Davidson Iteration
   19      2.28e-04     00000 Davidson Iteration
   20      1.46e-04     00000 Davidson Iteration
   21      9.98e-05     00000 Davidson Converged
converged_eigenvalues
   0.1719
   0.2556
Threshold for negative eigenvalues: -1.0e-05
solution was a local minimum (stable)
===================================================
End Test for Internal Stability
===================================================
Our SCF solution is stable!
Timing for Total SCF: 10513.00s (wall), 83638.74s (cpu)
 Total energy in the final basis set =     -100.3377071775
<S^2> =          0.000000000
    ==================================================
              The end of Object-Oriented SCFman       
    ==================================================
 
 --------------------------------------------------------------
 
                    Orbital Energies (a.u.)
 --------------------------------------------------------------
 
 Alpha MOs
 -- Occupied --
-15.547 -11.238  -2.526  -1.194  -0.610  -0.484  -0.456  -0.442
 -- Virtual --
 -0.022   0.008   0.011   0.011   0.018   0.036   0.041   0.042
  0.049   0.049   0.050   0.059   0.061   0.063   0.078   0.079
  0.081   0.088   0.089   0.094   0.109   0.110   0.111   0.121
  0.127   0.129   0.132   0.133   0.147   0.149   0.151   0.161
  0.166   0.171   0.172   0.174   0.174   0.175   0.177   0.182
  0.193   0.195   0.201   0.202   0.209   0.217   0.224   0.228
  0.230   0.246   0.250   0.263   0.267   0.294   0.301   0.309
  0.311   0.317   0.318   0.331   0.334   0.340   0.348   0.354
  0.356   0.377   0.386   0.387   0.403   0.411   0.424   0.424
  0.437   0.445   0.449   0.454   0.458   0.466   0.475   0.482
  0.493   0.500   0.515   0.521   0.525   0.539   0.559   0.570
  0.582   0.588   0.594   0.618   0.625   0.635   0.636   0.656
  0.660   0.668   0.679   0.680   0.693   0.696   0.707   0.719
  0.721   0.725   0.732   0.733   0.741   0.747   0.750   0.759
  0.764   0.764   0.782   0.792   0.818   0.828   0.841   0.861
  0.882   0.891   0.908   0.927   0.939   0.949   0.959   0.981
  0.997   1.019   1.027   1.030   1.038   1.050   1.054   1.059
  1.077   1.083   1.089   1.107   1.120   1.139   1.143   1.151
  1.171   1.177   1.183   1.191   1.210   1.240   1.264   1.294
  1.319   1.334   1.347   1.360   1.401   1.426   1.439   1.481
  1.497   1.519   1.614   1.691   1.739   1.745   1.789   1.835
  1.863   1.886   1.943   2.009   2.029   2.049   2.067   2.099
  2.161   2.203   2.260   2.319   2.341   2.362   2.410   2.419
  2.452   2.453   2.459   2.471   2.508   2.575   2.606   2.628
  2.670   2.715   2.718   2.752   2.803   2.828   2.847   2.875
  2.876   2.905   2.981   3.050   3.059   3.109   3.198   3.230
  3.273   3.331   3.369   3.462   3.507   3.515   3.537   3.561
  3.640   3.707   3.776   3.897   4.097   4.287   4.452   4.520
  4.536   4.576   4.593   4.608   4.709   4.778   4.851   4.939
  4.964   4.979   5.134   5.141   5.201   5.236   5.241   5.266
  5.297   5.376   5.438   5.530   5.660   5.686   5.687   5.747
  5.764   5.825   5.849   5.960   6.083   6.109   6.239   6.356
  6.455   6.473   6.536   6.722   6.780   6.854   6.931   7.108
  7.113   7.242   7.352   7.396   7.554   7.618   7.805   8.236
  8.674   8.793   8.852   9.791  10.052  10.365  10.708  10.747
 10.769  10.794  10.832  10.914  10.972  10.979  11.013  11.135
 11.141  11.300  11.307  11.433  11.574  11.595  11.633  11.986
 12.032  12.037  12.063  12.125  12.138  12.147  12.154  12.195
 12.243  12.265  12.272  12.385  12.419  12.459  12.628  12.660
 12.681  12.785  13.050  13.092  13.170  13.246  13.373  13.526
 13.530  14.124  14.265  14.326  15.154  15.193  15.253  15.378
 15.391  15.637  15.684  15.968  16.026  16.108  16.458  16.537
 16.739  17.437  17.592  17.665  17.825  18.394  18.434  18.450
 19.442  19.906  19.959  22.227  24.788  27.293  27.570  29.065
 32.929  33.017  33.879  33.897  35.393  49.003  49.118  49.266
 49.322  50.190  76.287 106.750
 
 Beta MOs
 -- Occupied --
-15.547 -11.238  -2.526  -1.194  -0.610  -0.484  -0.456  -0.442
 -- Virtual --
 -0.022   0.008   0.011   0.011   0.018   0.036   0.041   0.042
  0.049   0.049   0.050   0.059   0.061   0.063   0.078   0.079
  0.081   0.088   0.089   0.094   0.109   0.110   0.111   0.121
  0.127   0.129   0.132   0.133   0.147   0.149   0.151   0.161
  0.166   0.171   0.172   0.174   0.174   0.175   0.177   0.182
  0.193   0.195   0.201   0.202   0.209   0.217   0.224   0.228
  0.230   0.246   0.250   0.263   0.267   0.294   0.301   0.309
  0.311   0.317   0.318   0.331   0.334   0.340   0.348   0.354
  0.356   0.377   0.386   0.387   0.403   0.411   0.424   0.424
  0.437   0.445   0.449   0.454   0.458   0.466   0.475   0.482
  0.493   0.500   0.515   0.521   0.525   0.539   0.559   0.570
  0.582   0.588   0.594   0.618   0.625   0.635   0.636   0.656
  0.660   0.668   0.679   0.680   0.693   0.696   0.707   0.719
  0.721   0.725   0.732   0.733   0.741   0.747   0.750   0.759
  0.764   0.764   0.782   0.792   0.818   0.828   0.841   0.861
  0.882   0.891   0.908   0.927   0.939   0.949   0.959   0.981
  0.997   1.019   1.027   1.030   1.038   1.050   1.054   1.059
  1.077   1.083   1.089   1.107   1.120   1.139   1.143   1.151
  1.171   1.177   1.183   1.191   1.210   1.240   1.264   1.294
  1.319   1.334   1.347   1.360   1.401   1.426   1.439   1.481
  1.497   1.519   1.614   1.691   1.739   1.745   1.789   1.835
  1.863   1.886   1.943   2.009   2.029   2.049   2.067   2.099
  2.161   2.203   2.260   2.319   2.341   2.362   2.410   2.419
  2.452   2.453   2.459   2.471   2.508   2.575   2.606   2.628
  2.670   2.715   2.718   2.752   2.803   2.828   2.847   2.875
  2.876   2.905   2.981   3.050   3.059   3.109   3.198   3.230
  3.273   3.331   3.369   3.462   3.507   3.515   3.537   3.561
  3.640   3.707   3.776   3.897   4.097   4.287   4.452   4.520
  4.536   4.576   4.593   4.608   4.709   4.778   4.851   4.939
  4.964   4.979   5.134   5.141   5.201   5.236   5.241   5.266
  5.297   5.376   5.438   5.530   5.660   5.686   5.687   5.747
  5.764   5.825   5.849   5.960   6.083   6.109   6.239   6.356
  6.455   6.473   6.536   6.722   6.780   6.854   6.931   7.108
  7.113   7.242   7.352   7.396   7.554   7.618   7.805   8.236
  8.674   8.793   8.852   9.791  10.052  10.365  10.708  10.747
 10.769  10.794  10.832  10.914  10.972  10.979  11.013  11.135
 11.141  11.300  11.307  11.433  11.574  11.595  11.633  11.986
 12.032  12.037  12.063  12.125  12.138  12.147  12.154  12.195
 12.243  12.265  12.272  12.385  12.419  12.459  12.628  12.660
 12.681  12.785  13.050  13.092  13.170  13.246  13.373  13.526
 13.530  14.124  14.265  14.326  15.154  15.193  15.253  15.378
 15.391  15.637  15.684  15.968  16.026  16.108  16.458  16.537
 16.739  17.437  17.592  17.665  17.825  18.394  18.434  18.450
 19.442  19.906  19.959  22.227  24.788  27.293  27.570  29.065
 32.929  33.017  33.879  33.897  35.393  49.003  49.118  49.266
 49.322  50.190  76.287 106.750
 --------------------------------------------------------------
 
          Ground-State Mulliken Net Atomic Charges

     Atom                 Charge (a.u.)    Spin (a.u.)
  --------------------------------------------------------
      1 Li                    0.631248       0.000000
      2 C                    -0.095600      -0.000000
      3 N                    -0.535647      -0.000000
  --------------------------------------------------------
  Sum of atomic charges =    -0.000000
  Sum of spin   charges =    -0.000000

 -----------------------------------------------------------------
                    Cartesian Multipole Moments
 -----------------------------------------------------------------
    Charge (ESU x 10^10)
                -0.0000
    Dipole Moment (Debye)
         X       6.4908      Y      -2.8396      Z       0.0000
       Tot       7.0848
    Quadrupole Moments (Debye-Ang)
        XX      -5.6301     XY      -5.7398     YY     -15.0125
        XZ      -0.0000     YZ       0.0000     ZZ     -14.2574
    Octopole Moments (Debye-Ang^2)
       XXX      24.8734    XXY      -5.5031    XYY       7.2012
       YYY      -2.3493    XXZ       0.0000    XYZ       0.0000
       YYZ       0.0000    XZZ       3.3788    YZZ      -0.6905
       ZZZ       0.0000
    Hexadecapole Moments (Debye-Ang^3)
      XXXX     -22.4067   XXXY     -14.8089   XXYY     -11.4606
      XYYY      -8.1889   YYYY     -42.8081   XXXZ      -0.0000
      XXYZ      -0.0000   XYYZ      -0.0000   YYYZ      -0.0000
      XXZZ      -9.6599   XYZZ      -1.6640   YYZZ      -9.7937
      XZZZ      -0.0000   YZZZ       0.0000   ZZZZ     -17.4509
 -----------------------------------------------------------------
Archival summary:
1\1\n0047.mhg0\SP\ProcedureUnspecified\BasisUnspecified\11i1\yhljason\WedAug1221:42:542020WedAug1221:42:542020\0\\#,ProcedureUnspecified,BasisUnspecified,\\0,1\N\C,1,1.19015\Li,1,1.88712,2,83.0883\\HF=-100.337707\\@

 Total job time:  10768.48s(wall), 85632.17s(cpu) 
 Wed Aug 12 21:42:54 2020

        *************************************************************
        *                                                           *
        *  Thank you very much for using Q-Chem.  Have a nice day.  *
        *                                                           *
        *************************************************************


