Q-Chem Developer Version!
                  Welcome to Q-Chem
     A Quantum Leap Into The Future Of Chemistry


 Q-Chem 5.1, Q-Chem, Inc., Pleasanton, CA (2018)

 Yihan Shao,  Zhengting Gan,  E. Epifanovsky,  A. T. B. Gilbert,  M. Wormit,  
 J. Kussmann,  A. W. Lange,  A. Behn,  Jia Deng,  Xintian Feng,  D. Ghosh,  
 M. Goldey,  P. R. Horn,  L. D. Jacobson,  I. Kaliman,  T. Kus,  A. Landau,  
 Jie Liu,  E. I. Proynov,  R. M. Richard,  R. P. Steele,  E. J. Sundstrom,  
 H. L. Woodcock III,  P. M. Zimmerman,  D. Zuev,  B. Albrecht,  E. Alguire,  
 S. A. Baeppler,  D. Barton,  Z. Benda,  Y. A. Bernard,  E. J. Berquist,  
 K. B. Bravaya,  H. Burton,  D. Casanova,  Chun-Min Chang,  Yunqing Chen,  
 A. Chien,  K. D. Closser,  M. P. Coons,  S. Coriani,  S. Dasgupta,  
 A. L. Dempwolff,  M. Diedenhofen,  Hainam Do,  R. G. Edgar,  Po-Tung Fang,  
 S. Faraji,  S. Fatehi,  Qingguo Feng,  K. D. Fenk,  J. Fosso-Tande,  
 Qinghui Ge,  A. Ghysels,  G. Gidofalvi,  J. Gomes,  J. Gonthier,  A. Gunina,  
 D. Hait,  M. W. D. Hanson-Heine,  P. H. P. Harbach,  A. W. Hauser,  
 J. E. Herr,  E. G. Hohenstein,  Z. C. Holden,  Kerwin Hui,  B. C. Huynh,  
 T.-C. Jagau,  Hyunjun Ji,  B. Kaduk,  K. Khistyaev,  Jaehoon Kim,  
 P. Klunzinger,  K. Koh,  D. Kosenkov,  L. Koulias,  T. Kowalczyk,  
 C. M. Krauter,  A. Kunitsa,  Ka Un Lao,  A. Laurent,  K. V. Lawler,  
 Joonho Lee,  D. Lefrancois,  S. Lehtola,  D. S. Levine,  Yi-Pei Li,  
 You-Sheng Lin,  Fenglai Liu,  E. Livshits,  A. Luenser,  P. Manohar,  
 E. Mansoor,  S. F. Manzer,  Shan-Ping Mao,  Yuezhi Mao,  N. Mardirossian,  
 A. V. Marenich,  T. Markovich,  L. A. Martinez-Martinez,  S. A. Maurer,  
 N. J. Mayhall,  S. C. McKenzie,  J.-M. Mewes,  A. F. Morrison,  
 J. W. Mullinax,  K. Nanda,  T. S. Nguyen-Beck,  R. Olivares-Amaya,  
 J. A. Parkhill,  T. M. Perrine,  F. Plasser,  P. Pokhilko,  S. Prager,  
 A. Prociuk,  E. Ramos,  D. R. Rehn,  F. Rob,  M. Schneider,  N. Sergueev,  
 S. M. Sharada,  S. Sharma,  D. W. Small,  T. Stauch,  T. Stein,  
 Yu-Chuan Su,  A. J. W. Thom,  A. Tkatchenko,  T. Tsuchimochi,  N. M. Tubman,  
 L. Vogt,  M. L. Vidal,  O. Vydrov,  M. A. Watson,  J. Wenzel,  
 M. de Wergifosse,  T. A. Wesolowski,  A. White,  J. Witte,  A. Yamada,  
 Jun Yang,  K. Yao,  S. Yeganeh,  S. R. Yost,  Zhi-Qiang You,  A. Zech,  
 Igor Ying Zhang,  Xing Zhang,  Yan Zhao,  Ying Zhu,  B. R. Brooks,  
 G. K. L. Chan,  C. J. Cramer,  M. S. Gordon,  W. J. Hehre,  A. Klamt,  
 M. W. Schmidt,  C. D. Sherrill,  D. G. Truhlar,  A. Aspuru-Guzik,  R. Baer,  
 A. T. Bell,  N. A. Besley,  Jeng-Da Chai,  A. E. DePrince, III,  
 R. A. DiStasio Jr.,  A. Dreuw,  B. D. Dunietz,  T. R. Furlani,  
 Chao-Ping Hsu,  Yousung Jung,  Jing Kong,  D. S. Lambrecht,  WanZhen Liang,  
 C. Ochsenfeld,  V. A. Rassolov,  L. V. Slipchenko,  J. E. Subotnik,  
 T. Van Voorhis,  J. M. Herbert,  A. I. Krylov,  P. M. W. Gill,  M. Head-Gordon

 Contributors to earlier versions of Q-Chem not listed above: 
 R. D. Adamson,  B. Austin,  J. Baker,  G. J. O. Beran,  K. Brandhorst,  
 S. T. Brown,  E. F. C. Byrd,  A. K. Chakraborty,  C.-L. Cheng,  
 Siu Hung Chien,  D. M. Chipman,  D. L. Crittenden,  H. Dachsel,  
 R. J. Doerksen,  A. D. Dutoi,  L. Fusti-Molnar,  W. A. Goddard III,  
 A. Golubeva-Zadorozhnaya,  S. R. Gwaltney,  G. Hawkins,  A. Heyden,  
 S. Hirata,  G. Kedziora,  F. J. Keil,  C. Kelley,  Jihan Kim,  R. A. King,  
 R. Z. Khaliullin,  P. P. Korambath,  W. Kurlancheek,  A. M. Lee,  M. S. Lee,  
 S. V. Levchenko,  Ching Yeh Lin,  D. Liotard,  R. C. Lochan,  I. Lotan,  
 P. E. Maslen,  N. Nair,  D. P. O'Neill,  D. Neuhauser,  E. Neuscamman,  
 C. M. Oana,  R. Olson,  B. Peters,  R. Peverati,  P. A. Pieniazek,  
 Y. M. Rhee,  J. Ritchie,  M. A. Rohrdanz,  E. Rosta,  N. J. Russ,  
 H. F. Schaefer III,  N. E. Schultz,  N. Shenvi,  A. C. Simmonett,  A. Sodt,  
 D. Stuck,  K. S. Thanthiriwatte,  V. Vanovschi,  Tao Wang,  A. Warshel,  
 C. F. Williams,  Q. Wu,  X. Xu,  W. Zhang

 Please cite Q-Chem as follows:
 Y. Shao et al., Mol. Phys. 113, 184-215 (2015)
 DOI: 10.1080/00268976.2014.952696

 Q-Chem 5.1.1 for Intel X86 EM64T Linux

 Parts of Q-Chem use Armadillo 8.300.2 (Tropical Shenanigans).
 http://arma.sourceforge.net/

 Q-Chem begins on Wed Aug 12 02:53:11 2020  

Host: n0092.mhg0
0

     Scratch files written to /local/scratch/users/yhljason/NaLi_wM05-D_aug-pc-4.inp20200812003224//
Input Ideriv = 2
Curr. Ideriv = -1
Max.  Ideriv = 2
Input Ideriv = 1
Curr. Ideriv = 2
Max.  Ideriv = 1

Checking the input file for inconsistencies... 	...done.

--------------------------------------------------------------
User input:
--------------------------------------------------------------
$molecule
0 1
Li1     0.0000  0.0000  0.0000
Na2     0.0000  0.0000  2.8890
$end

$rem
jobtype sp
method wM05-D
xc_grid 000099000590
basis aug-pc-4
max_scf_cycles 200
thresh 14
scf_convergence 8
scf_algorithm gdm
symmetry false
sym_ignore true
unrestricted true
gen_scfman true
internal_stability_iter 15
internal_stability_davidson_iter 200
mem_total 64000
mem_static 1500
n_frozen_core 0
$end


--------------------------------------------------------------
 ----------------------------------------------------------------
             Standard Nuclear Orientation (Angstroms)
    I     Atom           X                Y                Z
 ----------------------------------------------------------------
    1      Li      0.0000000000     0.0000000000     0.0000000000
    2      Na      0.0000000000     0.0000000000     2.8890000000
 ----------------------------------------------------------------
 Nuclear Repulsion Energy =     6.0430732257 hartrees
 There are        7 alpha and        7 beta electrons
 Requested basis set is aug-pc-4
 There are 46 shells and 168 basis functions

 Total QAlloc Memory Limit  64000 MB
 Mega-Array Size      1467 MB
 MEM_STATIC part      1500 MB

                       Distance Matrix (Angstroms)
             Li(  1)
   Na(  2)  2.889000
 
 A cutoff of  1.0D-14 yielded   1081 shell pairs
 There are     14579 function pairs (     24714 Cartesian)
 
 -------------------------------------------------------
 OpenMP Integral Computing Module                       
 Release: version 1.0, May 2013, Q-Chem Inc. Pittsburgh 
 -------------------------------------------------------
 Integral Job Info:
 Integral job number is                      11
 Integral operator is                         1
 short-range coefficients              36959200
 long-range coefficients              100000000
 Omega coefficients                         200
 if combine SR and LR in K                    1
 Integral screening is                        0
 Integral computing path is                   2
 max size of driver memory is           3200000
 size of driver memory is               1704330
 size of scratch memory is             27411850
 max col of scratch BK array              50625
 max len of scratch array in speh3         2114
 max len of scratch index in speh4           50
 max int batch size is                      520
 min int batch size is                       52
 fixed nKL is                                 7
 max L of basis functions is                  4
 order of int derivative is                   0
 number of shells is                         46
 number of basis is                         218
 number of cartesian basis is               218
 number of contracted shell pairs          1081
 number of primitive shell pairs           6277
 maxK2 (contraction) of shell pair          225
 max number of K2 of shell pair               1
 max number of CS2 of shell pair            108
 max number of PS2 of shell pair            432
 mem total for path MDJ                  660646
 -------------------------------------------------------
 Smallest overlap matrix eigenvalue = 1.90E-05

 Scale SEOQF with 1.000000e-02/1.000000e-02/1.000000e-02

 Standard Electronic Orientation quadrupole field applied
 Nucleus-field energy     =    -0.0000000010 hartrees
 Guess from superposition of atomic densities
 Warning:  Energy on first SCF cycle will be non-variational
 SAD guess density has 14.000000 electrons

 -----------------------------------------------------------------------
  General SCF calculation program by
  Eric Jon Sundstrom, Paul Horn, Yuezhi Mao, Dmitri Zuev, Alec White,
  David Stuck, Shaama M.S., Shane Yost, Joonho Lee, David Small,
  Daniel Levine, Susi Lehtola, Hugh Burton, Evgeny Epifanovsky
 -----------------------------------------------------------------------
 Exchange:     0.3696 Hartree-Fock + 1.0000 wM05-D + LR-HF
 Correlation:  1.0000 wM05-D
 Using Euler-Maclaurin-Lebedev (99,590) quadrature formula
 Dispersion:   Grimme D
Running Object-Oriented UKS (UHF)
performing a single roothaan step with Fock from read density so that orbitals are available to all algorithms
energy of the guess density (C=0) -169.727259769259
We will preform up to 15 macro iterations over saddle points until a stable solution is found
Energy prior to optimization (guess energy) = -169.784532941112
Begin Timing: Total SCF Calculation
Begin Timing: SCF Single Stationary Point Calculation
begin iterations for algorithm: GDM          
the SCF tolerance is set to 1.00e-08
    1    -169.7845329411      1.14e-02     00000  Normal BFGS step
    2    -169.7857155066      4.77e-03     00000  Normal BFGS step
    3    -169.7858978753      1.46e-03     00000  Normal BFGS step
    4    -169.7859128701      5.20e-04     00000  Normal BFGS step
    5    -169.7859149323      1.33e-04     00000  Normal BFGS step
    6    -169.7859150778      6.19e-05     00000  Normal BFGS step
    7    -169.7859150966      1.09e-05     00000  Normal BFGS step
    8    -169.7859150973      2.19e-06     00000  Normal BFGS step
    9    -169.7859150974      9.19e-07     00000  Normal BFGS step
   10    -169.7859150974      2.86e-07     00000  Normal BFGS step
   11    -169.7859150974      5.24e-08     00000  Normal BFGS step
   12    -169.7859150974      1.19e-08     00000  Normal BFGS step
   13    -169.7859150974      4.97e-09     00000 Convergence criterion met
Timing for Single Stationary Point: 136.00s (wall), 1083.00s (cpu)
Begin Timing: Stability
===================================================
Beginning Test for Internal Stability
===================================================
generating davidson guess vectors based on koopmans excitations
    1      3.30e-01     00000 Davidson Iteration
    2      1.17e-01     00000 Davidson Iteration
    3      5.75e-02     00000 Davidson Iteration
    4      5.24e-03     00000 Davidson Iteration
    5      2.90e-03     00000 Davidson Iteration
    6      2.91e-03     00000 Davidson Iteration
    7      6.28e-04     00000 Davidson Iteration
    8      9.17e-05     00000 Davidson Iteration
    9      7.51e-03     00000 Davidson Iteration
   10      5.11e-03     00000 Davidson Iteration
   11      9.80e-04     00000 Davidson Iteration
   12      3.83e-04     00000 Davidson Iteration
   13      3.61e-04     00000 Davidson Iteration
   14      3.47e-04     00000 Davidson Iteration
   15      3.36e-04     00000 Davidson Iteration
   16      2.24e-04     00000 Davidson Iteration
   17      4.66e-05     00000 Davidson Converged
converged_eigenvalues
   0.0683
   0.0944
Threshold for negative eigenvalues: -1.0e-05
solution was a local minimum (stable)
===================================================
End Test for Internal Stability
===================================================
Our SCF solution is stable!
Timing for Total SCF: 503.00s (wall), 4022.07s (cpu)
 Total energy in the final basis set =     -169.7859150974
<S^2> =          0.000000000
    ==================================================
              The end of Object-Oriented SCFman       
    ==================================================
 
 --------------------------------------------------------------
 
                    Orbital Energies (a.u.)
 --------------------------------------------------------------
 
 Alpha MOs
 -- Occupied --
-38.761  -2.335  -2.139  -1.264  -1.264  -1.264  -0.184
 -- Virtual --
 -0.003   0.011   0.016   0.017   0.017   0.027   0.028   0.028
  0.036   0.036   0.037   0.043   0.062   0.073   0.073   0.076
  0.076   0.080   0.086   0.086   0.093   0.102   0.106   0.106
  0.109   0.109   0.116   0.127   0.127   0.135   0.135   0.140
  0.148   0.148   0.155   0.155   0.171   0.171   0.174   0.180
  0.180   0.185   0.185   0.190   0.196   0.196   0.205   0.209
  0.213   0.213   0.214   0.214   0.216   0.216   0.235   0.251
  0.251   0.252   0.252   0.255   0.255   0.268   0.268   0.268
  0.288   0.288   0.294   0.309   0.309   0.369   0.375   0.375
  0.396   0.396   0.427   0.465   0.465   0.468   0.496   0.503
  0.503   0.525   0.538   0.538   0.692   0.734   0.734   0.773
  0.773   0.778   0.778   0.790   0.828   0.828   0.917   0.936
  0.936   0.985   0.985   1.032   1.088   1.088   1.094   1.094
  1.112   1.177   1.177   1.252   1.393   1.393   1.475   1.475
  1.489   1.489   1.511   1.511   1.528   1.528   1.533   1.533
  1.574   1.655   1.671   1.671   1.737   2.118   2.328   2.328
  2.335   2.335   2.402   2.402   2.555   2.643   2.643   2.652
  2.652   2.698   2.698   2.736   2.879   2.879   3.156   4.102
  4.102   4.119   4.119   4.218   4.218   4.295   5.335   5.335
  5.363   5.363   5.479   5.812   5.812   5.841   5.841   5.927
 10.425
 
 Beta MOs
 -- Occupied --
-38.761  -2.335  -2.139  -1.264  -1.264  -1.264  -0.184
 -- Virtual --
 -0.003   0.011   0.016   0.017   0.017   0.027   0.028   0.028
  0.036   0.036   0.037   0.043   0.062   0.073   0.073   0.076
  0.076   0.080   0.086   0.086   0.093   0.102   0.106   0.106
  0.109   0.109   0.116   0.127   0.127   0.135   0.135   0.140
  0.148   0.148   0.155   0.155   0.171   0.171   0.174   0.180
  0.180   0.185   0.185   0.190   0.196   0.196   0.205   0.209
  0.213   0.213   0.214   0.214   0.216   0.216   0.235   0.251
  0.251   0.252   0.252   0.255   0.255   0.268   0.268   0.268
  0.288   0.288   0.294   0.309   0.309   0.369   0.375   0.375
  0.396   0.396   0.427   0.465   0.465   0.468   0.496   0.503
  0.503   0.525   0.538   0.538   0.692   0.734   0.734   0.773
  0.773   0.778   0.778   0.790   0.828   0.828   0.917   0.936
  0.936   0.985   0.985   1.032   1.088   1.088   1.094   1.094
  1.112   1.177   1.177   1.252   1.393   1.393   1.475   1.475
  1.489   1.489   1.511   1.511   1.528   1.528   1.533   1.533
  1.574   1.655   1.671   1.671   1.737   2.118   2.328   2.328
  2.335   2.335   2.402   2.402   2.555   2.643   2.643   2.652
  2.652   2.698   2.698   2.736   2.879   2.879   3.156   4.102
  4.102   4.119   4.119   4.218   4.218   4.295   5.335   5.335
  5.363   5.363   5.479   5.812   5.812   5.841   5.841   5.927
 10.425
 --------------------------------------------------------------
 
          Ground-State Mulliken Net Atomic Charges

     Atom                 Charge (a.u.)    Spin (a.u.)
  --------------------------------------------------------
      1 Li                   -0.607636       0.000000
      2 Na                    0.607636      -0.000000
  --------------------------------------------------------
  Sum of atomic charges =    -0.000000
  Sum of spin   charges =    -0.000000

 -----------------------------------------------------------------
                    Cartesian Multipole Moments
 -----------------------------------------------------------------
    Charge (ESU x 10^10)
                 0.0000
    Dipole Moment (Debye)
         X       0.0000      Y      -0.0000      Z       0.3732
       Tot       0.3732
    Quadrupole Moments (Debye-Ang)
        XX     -20.0472     XY      -0.0000     YY     -20.0472
        XZ       0.0000     YZ       0.0000     ZZ      -4.2644
    Octopole Moments (Debye-Ang^2)
       XXX       0.0000    XXY       0.0000    XYY       0.0000
       YYY       0.0000    XXZ     -32.4634    XYZ       0.0000
       YYZ     -32.4634    XZZ       0.0000    YZZ       0.0000
       ZZZ     -31.8737
    Hexadecapole Moments (Debye-Ang^3)
      XXXX     -95.0539   XXXY      -0.0000   XXYY     -31.6847
      XYYY      -0.0000   YYYY     -95.0539   XXXZ       0.0000
      XXYZ       0.0000   XYYZ       0.0000   YYYZ       0.0000
      XXZZ    -102.1407   XYZZ       0.0000   YYZZ    -102.1407
      XZZZ       0.0000   YZZZ       0.0000   ZZZZ    -294.4415
 -----------------------------------------------------------------
Archival summary:
1\1\n0092.mhg0\SP\ProcedureUnspecified\BasisUnspecified\a1i1\yhljason\WedAug1203:01:502020WedAug1203:01:502020\0\\#,ProcedureUnspecified,BasisUnspecified,\\0,1\Li\Na,1,2.889\\\@

 Total job time:  519.38s(wall), 4148.59s(cpu) 
 Wed Aug 12 03:01:50 2020

        *************************************************************
        *                                                           *
        *  Thank you very much for using Q-Chem.  Have a nice day.  *
        *                                                           *
        *************************************************************


