Q-Chem Developer Version!
                  Welcome to Q-Chem
     A Quantum Leap Into The Future Of Chemistry


 Q-Chem 5.1, Q-Chem, Inc., Pleasanton, CA (2018)

 Yihan Shao,  Zhengting Gan,  E. Epifanovsky,  A. T. B. Gilbert,  M. Wormit,  
 J. Kussmann,  A. W. Lange,  A. Behn,  Jia Deng,  Xintian Feng,  D. Ghosh,  
 M. Goldey,  P. R. Horn,  L. D. Jacobson,  I. Kaliman,  T. Kus,  A. Landau,  
 Jie Liu,  E. I. Proynov,  R. M. Richard,  R. P. Steele,  E. J. Sundstrom,  
 H. L. Woodcock III,  P. M. Zimmerman,  D. Zuev,  B. Albrecht,  E. Alguire,  
 S. A. Baeppler,  D. Barton,  Z. Benda,  Y. A. Bernard,  E. J. Berquist,  
 K. B. Bravaya,  H. Burton,  D. Casanova,  Chun-Min Chang,  Yunqing Chen,  
 A. Chien,  K. D. Closser,  M. P. Coons,  S. Coriani,  S. Dasgupta,  
 A. L. Dempwolff,  M. Diedenhofen,  Hainam Do,  R. G. Edgar,  Po-Tung Fang,  
 S. Faraji,  S. Fatehi,  Qingguo Feng,  K. D. Fenk,  J. Fosso-Tande,  
 Qinghui Ge,  A. Ghysels,  G. Gidofalvi,  J. Gomes,  J. Gonthier,  A. Gunina,  
 D. Hait,  M. W. D. Hanson-Heine,  P. H. P. Harbach,  A. W. Hauser,  
 J. E. Herr,  E. G. Hohenstein,  Z. C. Holden,  Kerwin Hui,  B. C. Huynh,  
 T.-C. Jagau,  Hyunjun Ji,  B. Kaduk,  K. Khistyaev,  Jaehoon Kim,  
 P. Klunzinger,  K. Koh,  D. Kosenkov,  L. Koulias,  T. Kowalczyk,  
 C. M. Krauter,  A. Kunitsa,  Ka Un Lao,  A. Laurent,  K. V. Lawler,  
 Joonho Lee,  D. Lefrancois,  S. Lehtola,  D. S. Levine,  Yi-Pei Li,  
 You-Sheng Lin,  Fenglai Liu,  E. Livshits,  A. Luenser,  P. Manohar,  
 E. Mansoor,  S. F. Manzer,  Shan-Ping Mao,  Yuezhi Mao,  N. Mardirossian,  
 A. V. Marenich,  T. Markovich,  L. A. Martinez-Martinez,  S. A. Maurer,  
 N. J. Mayhall,  S. C. McKenzie,  J.-M. Mewes,  A. F. Morrison,  
 J. W. Mullinax,  K. Nanda,  T. S. Nguyen-Beck,  R. Olivares-Amaya,  
 J. A. Parkhill,  T. M. Perrine,  F. Plasser,  P. Pokhilko,  S. Prager,  
 A. Prociuk,  E. Ramos,  D. R. Rehn,  F. Rob,  M. Schneider,  N. Sergueev,  
 S. M. Sharada,  S. Sharma,  D. W. Small,  T. Stauch,  T. Stein,  
 Yu-Chuan Su,  A. J. W. Thom,  A. Tkatchenko,  T. Tsuchimochi,  N. M. Tubman,  
 L. Vogt,  M. L. Vidal,  O. Vydrov,  M. A. Watson,  J. Wenzel,  
 M. de Wergifosse,  T. A. Wesolowski,  A. White,  J. Witte,  A. Yamada,  
 Jun Yang,  K. Yao,  S. Yeganeh,  S. R. Yost,  Zhi-Qiang You,  A. Zech,  
 Igor Ying Zhang,  Xing Zhang,  Yan Zhao,  Ying Zhu,  B. R. Brooks,  
 G. K. L. Chan,  C. J. Cramer,  M. S. Gordon,  W. J. Hehre,  A. Klamt,  
 M. W. Schmidt,  C. D. Sherrill,  D. G. Truhlar,  A. Aspuru-Guzik,  R. Baer,  
 A. T. Bell,  N. A. Besley,  Jeng-Da Chai,  A. E. DePrince, III,  
 R. A. DiStasio Jr.,  A. Dreuw,  B. D. Dunietz,  T. R. Furlani,  
 Chao-Ping Hsu,  Yousung Jung,  Jing Kong,  D. S. Lambrecht,  WanZhen Liang,  
 C. Ochsenfeld,  V. A. Rassolov,  L. V. Slipchenko,  J. E. Subotnik,  
 T. Van Voorhis,  J. M. Herbert,  A. I. Krylov,  P. M. W. Gill,  M. Head-Gordon

 Contributors to earlier versions of Q-Chem not listed above: 
 R. D. Adamson,  B. Austin,  J. Baker,  G. J. O. Beran,  K. Brandhorst,  
 S. T. Brown,  E. F. C. Byrd,  A. K. Chakraborty,  C.-L. Cheng,  
 Siu Hung Chien,  D. M. Chipman,  D. L. Crittenden,  H. Dachsel,  
 R. J. Doerksen,  A. D. Dutoi,  L. Fusti-Molnar,  W. A. Goddard III,  
 A. Golubeva-Zadorozhnaya,  S. R. Gwaltney,  G. Hawkins,  A. Heyden,  
 S. Hirata,  G. Kedziora,  F. J. Keil,  C. Kelley,  Jihan Kim,  R. A. King,  
 R. Z. Khaliullin,  P. P. Korambath,  W. Kurlancheek,  A. M. Lee,  M. S. Lee,  
 S. V. Levchenko,  Ching Yeh Lin,  D. Liotard,  R. C. Lochan,  I. Lotan,  
 P. E. Maslen,  N. Nair,  D. P. O'Neill,  D. Neuhauser,  E. Neuscamman,  
 C. M. Oana,  R. Olson,  B. Peters,  R. Peverati,  P. A. Pieniazek,  
 Y. M. Rhee,  J. Ritchie,  M. A. Rohrdanz,  E. Rosta,  N. J. Russ,  
 H. F. Schaefer III,  N. E. Schultz,  N. Shenvi,  A. C. Simmonett,  A. Sodt,  
 D. Stuck,  K. S. Thanthiriwatte,  V. Vanovschi,  Tao Wang,  A. Warshel,  
 C. F. Williams,  Q. Wu,  X. Xu,  W. Zhang

 Please cite Q-Chem as follows:
 Y. Shao et al., Mol. Phys. 113, 184-215 (2015)
 DOI: 10.1080/00268976.2014.952696

 Q-Chem 5.1.1 for Intel X86 EM64T Linux

 Parts of Q-Chem use Armadillo 8.300.2 (Tropical Shenanigans).
 http://arma.sourceforge.net/

 Q-Chem begins on Wed Aug 12 03:28:28 2020  

Host: n0089.mhg0
0

     Scratch files written to /local/scratch/users/yhljason/P2_HFLYP_aug-pc-4.inp20200812003234//
Input Ideriv = 2
Curr. Ideriv = -1
Max.  Ideriv = 2

Checking the input file for inconsistencies... 	...done.

--------------------------------------------------------------
User input:
--------------------------------------------------------------
$molecule
0 1
P1 0.0000   0.0000   0.0000
P2 0.0000   0.0000   1.8934
$end

$rem
jobtype sp
method HFLYP
xc_grid 000099000590
basis aug-pc-4
max_scf_cycles 200
thresh 14
scf_convergence 8
scf_algorithm gdm
symmetry false
sym_ignore true
unrestricted true
gen_scfman true
internal_stability_iter 15
internal_stability_davidson_iter 200
mem_total 64000
mem_static 1500
n_frozen_core 0
$end


--------------------------------------------------------------
 ----------------------------------------------------------------
             Standard Nuclear Orientation (Angstroms)
    I     Atom           X                Y                Z
 ----------------------------------------------------------------
    1      P       0.0000000000     0.0000000000     0.0000000000
    2      P       0.0000000000     0.0000000000     1.8934000000
 ----------------------------------------------------------------
 Nuclear Repulsion Energy =    62.8841620524 hartrees
 There are       15 alpha and       15 beta electrons
 Requested basis set is aug-pc-4
 There are 62 shells and 282 basis functions

 Total QAlloc Memory Limit  64000 MB
 Mega-Array Size      1467 MB
 MEM_STATIC part      1500 MB

                       Distance Matrix (Angstroms)
             P (  1)
   P (  2)  1.893400
 
 A cutoff of  1.0D-14 yielded   1945 shell pairs
 There are     40593 function pairs (     80555 Cartesian)
 
 -------------------------------------------------------
 OpenMP Integral Computing Module                       
 Release: version 1.0, May 2013, Q-Chem Inc. Pittsburgh 
 -------------------------------------------------------
 Integral Job Info:
 Integral job number is                      11
 Integral operator is                         1
 short-range coefficients                     0
 long-range coefficients              100000000
 Omega coefficients                           0
 if combine SR and LR in K                    0
 Integral screening is                        0
 Integral computing path is                   2
 max size of driver memory is           6400000
 size of driver memory is               5498286
 size of scratch memory is             27847117
 max col of scratch BK array             194481
 max len of scratch array in speh3         5572
 max len of scratch index in speh4           72
 max int batch size is                      520
 min int batch size is                       52
 fixed nKL is                                 7
 max L of basis functions is                  5
 order of int derivative is                   0
 number of shells is                         62
 number of basis is                         396
 number of cartesian basis is               396
 number of contracted shell pairs          1945
 number of primitive shell pairs          12466
 maxK2 (contraction) of shell pair          225
 max number of K2 of shell pair               1
 max number of CS2 of shell pair            144
 max number of PS2 of shell pair           1056
 mem total for path MDJ                  994974
 -------------------------------------------------------
 Smallest overlap matrix eigenvalue = 2.57E-06

 Scale SEOQF with 1.000000e-01/1.000000e-01/1.000000e-01

 Standard Electronic Orientation quadrupole field applied
 Nucleus-field energy     =    -0.0000000058 hartrees
 Guess from superposition of atomic densities
 Warning:  Energy on first SCF cycle will be non-variational
 SAD guess density has 30.000000 electrons

 -----------------------------------------------------------------------
  General SCF calculation program by
  Eric Jon Sundstrom, Paul Horn, Yuezhi Mao, Dmitri Zuev, Alec White,
  David Stuck, Shaama M.S., Shane Yost, Joonho Lee, David Small,
  Daniel Levine, Susi Lehtola, Hugh Burton, Evgeny Epifanovsky
 -----------------------------------------------------------------------
 Exchange:     1.0000 Hartree-Fock
 Correlation:  1.0000 LYP
 Using Euler-Maclaurin-Lebedev (99,590) quadrature formula
Running Object-Oriented UKS (UHF)
performing a single roothaan step with Fock from read density so that orbitals are available to all algorithms
 LTot/LBra/LKet=          12           2          10

 Q-Chem warning:

 in GenH1, ket side, handled with new code

energy of the guess density (C=0) -682.739906493833
 LTot/LBra/LBra=          20          10          10

 Q-Chem warning:

 in GenH1, bra side, handled with new code

We will preform up to 15 macro iterations over saddle points until a stable solution is found
Energy prior to optimization (guess energy) = -682.694901001090
Begin Timing: Total SCF Calculation
Begin Timing: SCF Single Stationary Point Calculation
begin iterations for algorithm: GDM          
the SCF tolerance is set to 1.00e-08
    1    -682.6949010011      2.28e-02     00000  Normal BFGS step
    2    -682.7018285407      8.68e-03     00000  Normal BFGS step
    3    -682.7026475820      8.01e-04     00000  Normal BFGS step
    4    -682.7026583874      4.49e-04     00000  Normal BFGS step
    5    -682.7026594355      1.08e-04     00000  Normal BFGS step
    6    -682.7026595282      1.68e-05     00000  Normal BFGS step
    7    -682.7026595333      3.57e-06     00000  Normal BFGS step
    8    -682.7026595335      8.26e-07     00000  Normal BFGS step
    9    -682.7026595335      1.89e-07     00000  Normal BFGS step
   10    -682.7026595335      3.09e-08     00000  Normal BFGS step
   11    -682.7026595335      4.19e-09     00000 Convergence criterion met
Timing for Single Stationary Point: 1690.00s (wall), 13423.81s (cpu)
Begin Timing: Stability
===================================================
Beginning Test for Internal Stability
===================================================
generating davidson guess vectors based on koopmans excitations
    1      6.79e-01     00000 Davidson Iteration
    2      7.30e-01     00000 Davidson Iteration
    3      3.51e-01     00000 Davidson Iteration
    4      1.83e-02     00000 Davidson Iteration
    5      8.09e-03     00000 Davidson Iteration
    6      1.27e-03     00000 Davidson Iteration
    7      2.74e-04     00000 Davidson Iteration
    8      8.74e-05     00000 Davidson Iteration
    9      3.08e-04     00000 Davidson Iteration
   10      2.47e-03     00000 Davidson Iteration
   11      1.42e-04     00000 Davidson Iteration
   12      5.21e-05     00000 Davidson Iteration
   13      6.55e-03     00000 Davidson Iteration
   14      2.17e-03     00000 Davidson Iteration
   15      8.59e-04     00000 Davidson Iteration
   16      4.88e-04     00000 Davidson Iteration
   17      3.13e-04     00000 Davidson Iteration
   18      1.20e-04     00000 Davidson Iteration
   19      5.16e-05     00000 Davidson Converged
converged_eigenvalues
   0.0259
   0.1841
  -0.0225
Threshold for negative eigenvalues: -1.0e-05
solution was a saddle point (unstable)
displacing from saddle point as requested
performing a line search along the lowest hessian eigenvector after a small displacement (1E-3) to give a non-zero gradient along this direction 
===================================================
End Test for Internal Stability
===================================================
Timing for Internal Stability: 4972.00s (wall), 39499.20s (cpu)
completed scf stability macro iteration 1
beginning next scf after displacing from saddle point
Begin Timing: SCF Single Stationary Point Calculation
begin iterations for algorithm: GDM          
the SCF tolerance is set to 1.00e-08
    1    -682.7032303764      2.02e-03     00000  Normal BFGS step
    2    -682.7032937841      9.26e-04     00000  Normal BFGS step
    3    -682.7033032851      3.88e-04     00000  Normal BFGS step
    4    -682.7033046438      3.68e-04     00000  Normal BFGS step
    5    -682.7033065830      3.16e-04     00000  Normal BFGS step
    6    -682.7033087843      2.66e-04     00000  Normal BFGS step
    7    -682.7033114087      2.83e-04     00000  Normal BFGS step
    8    -682.7033126049      1.43e-04     00000  Normal BFGS step
    9    -682.7033128694      2.26e-05     00000  Normal BFGS step
   10    -682.7033128839      1.06e-05     00000  Normal BFGS step
   11    -682.7033128850      6.51e-06     00000  Normal BFGS step
   12    -682.7033128854      3.58e-06     00000  Normal BFGS step
   13    -682.7033128855      1.12e-06     00000  Normal BFGS step
   14    -682.7033128855      1.93e-07     00000  Normal BFGS step
   15    -682.7033128855      5.82e-08     00000  Normal BFGS step
   16    -682.7033128855      4.48e-08     00000  Normal BFGS step
   17    -682.7033128855      3.21e-08     00000  Normal BFGS step
   18    -682.7033128855      2.93e-08     00000  Normal BFGS step
   19    -682.7033128855      1.86e-08     00000  Normal BFGS step
   20    -682.7033128855      1.19e-08     00000  Normal BFGS step
   21    -682.7033128855      1.01e-08     00000  Normal BFGS step
   22    -682.7033128855      6.49e-09     00000 Convergence criterion met
Timing for Single Stationary Point: 3381.00s (wall), 26869.37s (cpu)
Begin Timing: Stability
===================================================
Beginning Test for Internal Stability
===================================================
generating davidson guess vectors based on koopmans excitations
    1      7.21e-01     00000 Davidson Iteration
    2      3.94e-01     00000 Davidson Iteration
    3      7.32e-02     00000 Davidson Iteration
    4      8.68e-02     00000 Davidson Iteration
    5      2.69e-02     00000 Davidson Iteration
    6      2.69e-02     00000 Davidson Iteration
    7      2.38e-02     00000 Davidson Iteration
    8      9.74e-03     00000 Davidson Iteration
    9      2.59e-03     00000 Davidson Iteration
   10      1.49e-03     00000 Davidson Iteration
   11      8.14e-04     00000 Davidson Iteration
   12      3.17e-04     00000 Davidson Iteration
   13      7.67e-05     00000 Davidson Iteration
   14      3.34e-05     00000 Davidson Converged
converged_eigenvalues
   0.0758
   0.0434
Threshold for negative eigenvalues: -1.0e-05
solution was a local minimum (stable)
===================================================
End Test for Internal Stability
===================================================
Our SCF solution is stable!
Timing for Total SCF: 12810.00s (wall), 101766.94s (cpu)
 Total energy in the final basis set =     -682.7033128855
<S^2> =          0.225699191
    ==================================================
              The end of Object-Oriented SCFman       
    ==================================================
 
 --------------------------------------------------------------
 
                    Orbital Energies (a.u.)
 --------------------------------------------------------------
 
 Alpha MOs
 -- Occupied --
-79.959 -79.954  -7.542  -7.537  -5.439  -5.439  -5.434  -5.431
 -5.426  -5.426  -0.932  -0.634  -0.435  -0.404  -0.404
 -- Virtual --
 -0.004  -0.004   0.024   0.032   0.033   0.033   0.047   0.047
  0.049   0.081   0.109   0.109   0.125   0.127   0.127   0.127
  0.143   0.143   0.145   0.145   0.149   0.149   0.154   0.199
  0.228   0.228   0.229   0.234   0.234   0.242   0.257   0.257
  0.261   0.261   0.274   0.274   0.315   0.315   0.316   0.333
  0.333   0.344   0.344   0.356   0.368   0.385   0.385   0.393
  0.393   0.434   0.434   0.435   0.435   0.459   0.463   0.463
  0.467   0.467   0.476   0.514   0.521   0.521   0.528   0.528
  0.537   0.537   0.544   0.544   0.570   0.570   0.577   0.577
  0.591   0.591   0.615   0.615   0.618   0.634   0.636   0.636
  0.640   0.640   0.664   0.664   0.666   0.666   0.679   0.679
  0.754   0.760   0.761   0.761   0.763   0.763   0.768   0.768
  0.848   0.848   0.889   0.909   0.959   0.959   0.989   1.084
  1.084   1.112   1.112   1.126   1.126   1.170   1.170   1.220
  1.251   1.251   1.260   1.260   1.360   1.360   1.364   1.385
  1.411   1.411   1.421   1.435   1.435   1.500   1.500   1.764
  1.803   1.803   1.992   2.305   2.307   2.307   2.321   2.321
  2.323   2.323   2.388   2.388   2.418   2.418   2.450   2.450
  2.502   2.502   2.529   2.529   2.663   2.663   2.722   2.779
  2.779   2.849   3.059   3.089   3.089   3.115   3.115   3.190
  3.193   3.193   3.195   3.195   3.231   3.231   3.253   3.346
  3.346   3.370   3.430   3.430   3.489   3.489   3.503   3.503
  3.529   3.934   4.196   4.196   4.801   4.801   4.939   4.939
  4.958   4.958   5.048   5.048   5.082   5.082   5.198   5.198
  5.224   5.224   5.297   5.641   5.641   5.723   5.841   5.841
  5.856   5.856   5.936   5.936   6.090   6.090   6.156   6.311
  6.311   6.440   6.508   6.508   6.964   7.669   7.669   7.672
  7.672   7.716   7.716   7.841   7.841   7.848   7.848   8.130
  8.130   8.144   8.144   8.154   8.428   8.428   8.446  10.890
 10.890  10.908  10.908  10.941  10.941  10.966  10.966  11.005
 11.005  11.008  11.615  11.615  12.065  16.986  16.986  16.998
 16.998  17.045  17.045  17.155  17.155  17.327  17.721  21.966
 23.200  60.631  60.631  60.639  60.639  60.664  60.664  60.732
 60.732  60.908  61.034
 
 Beta MOs
 -- Occupied --
-79.959 -79.954  -7.542  -7.537  -5.439  -5.439  -5.434  -5.431
 -5.426  -5.426  -0.932  -0.634  -0.435  -0.404  -0.404
 -- Virtual --
 -0.004  -0.004   0.024   0.032   0.033   0.033   0.047   0.047
  0.049   0.081   0.109   0.109   0.125   0.127   0.127   0.127
  0.143   0.143   0.145   0.145   0.149   0.149   0.154   0.199
  0.228   0.228   0.229   0.234   0.234   0.242   0.257   0.257
  0.261   0.261   0.274   0.274   0.315   0.315   0.316   0.333
  0.333   0.344   0.344   0.356   0.368   0.385   0.385   0.393
  0.393   0.434   0.434   0.435   0.435   0.459   0.463   0.463
  0.467   0.467   0.476   0.514   0.521   0.521   0.528   0.528
  0.537   0.537   0.544   0.544   0.570   0.570   0.577   0.577
  0.591   0.591   0.615   0.615   0.618   0.634   0.636   0.636
  0.640   0.640   0.664   0.664   0.666   0.666   0.679   0.679
  0.754   0.760   0.761   0.761   0.763   0.763   0.768   0.768
  0.848   0.848   0.889   0.909   0.959   0.959   0.989   1.084
  1.084   1.112   1.112   1.126   1.126   1.170   1.170   1.220
  1.251   1.251   1.260   1.260   1.360   1.360   1.364   1.385
  1.411   1.411   1.421   1.435   1.435   1.500   1.500   1.764
  1.803   1.803   1.992   2.305   2.307   2.307   2.321   2.321
  2.323   2.323   2.388   2.388   2.418   2.418   2.450   2.450
  2.502   2.502   2.529   2.529   2.663   2.663   2.722   2.779
  2.779   2.849   3.059   3.089   3.089   3.115   3.115   3.190
  3.193   3.193   3.195   3.195   3.231   3.231   3.253   3.346
  3.346   3.370   3.430   3.430   3.489   3.489   3.503   3.503
  3.529   3.934   4.196   4.196   4.801   4.801   4.939   4.939
  4.958   4.958   5.048   5.048   5.082   5.082   5.198   5.198
  5.224   5.224   5.297   5.641   5.641   5.723   5.841   5.841
  5.856   5.856   5.936   5.936   6.090   6.090   6.156   6.311
  6.311   6.440   6.508   6.508   6.964   7.669   7.669   7.672
  7.672   7.716   7.716   7.841   7.841   7.848   7.848   8.130
  8.130   8.144   8.144   8.154   8.428   8.428   8.446  10.890
 10.890  10.908  10.908  10.941  10.941  10.966  10.966  11.005
 11.005  11.008  11.615  11.615  12.065  16.986  16.986  16.998
 16.998  17.045  17.045  17.155  17.155  17.327  17.721  21.966
 23.200  60.631  60.631  60.639  60.639  60.664  60.664  60.732
 60.732  60.908  61.034
 --------------------------------------------------------------
 
          Ground-State Mulliken Net Atomic Charges

     Atom                 Charge (a.u.)    Spin (a.u.)
  --------------------------------------------------------
      1 P                    -0.000000      -0.725141
      2 P                     0.000000       0.725141
  --------------------------------------------------------
  Sum of atomic charges =     0.000000
  Sum of spin   charges =    -0.000000

 -----------------------------------------------------------------
                    Cartesian Multipole Moments
 -----------------------------------------------------------------
    Charge (ESU x 10^10)
                 0.0000
    Dipole Moment (Debye)
         X      -0.0000      Y       0.0000      Z       0.0000
       Tot       0.0000
    Quadrupole Moments (Debye-Ang)
        XX     -26.2901     XY      -0.0000     YY     -26.2901
        XZ       0.0000     YZ       0.0000     ZZ     -25.1988
    Octopole Moments (Debye-Ang^2)
       XXX      -0.0000    XXY       0.0000    XYY      -0.0000
       YYY       0.0000    XXZ     -24.8888    XYZ      -0.0000
       YYZ     -24.8888    XZZ      -0.0000    YZZ       0.0000
       ZZZ     -71.5671
    Hexadecapole Moments (Debye-Ang^3)
      XXXX     -42.3641   XXXY      -0.0000   XXYY     -14.1214
      XYYY      -0.0000   YYYY     -42.3641   XXXZ      -0.0000
      XXYZ       0.0000   XYYZ      -0.0000   YYYZ       0.0000
      XXZZ     -58.9152   XYZZ       0.0000   YYZZ     -58.9152
      XZZZ      -0.0000   YZZZ       0.0000   ZZZZ    -319.3592
 -----------------------------------------------------------------
Archival summary:
1\1\n0089.mhg0\SP\ProcedureUnspecified\BasisUnspecified\2\yhljason\WedAug1207:04:502020WedAug1207:04:502020\0\\#,ProcedureUnspecified,BasisUnspecified,\\0,1\P\P,1,1.8934\\HF=-682.703313\\@

 Total job time:  12981.92s(wall), 103093.23s(cpu) 
 Wed Aug 12 07:04:50 2020

        *************************************************************
        *                                                           *
        *  Thank you very much for using Q-Chem.  Have a nice day.  *
        *                                                           *
        *************************************************************


