                  Welcome to Q-Chem
     A Quantum Leap Into The Future Of Chemistry


 Q-Chem 5.3 (devel), Q-Chem, Inc., Pleasanton, CA (2020)

 Yihan Shao,  Zhengting Gan,  E. Epifanovsky,  A. T. B. Gilbert,  M. Wormit,  
 J. Kussmann,  A. W. Lange,  A. Behn,  Jia Deng,  Xintian Feng,  D. Ghosh,  
 M. Goldey,  P. R. Horn,  L. D. Jacobson,  I. Kaliman,  T. Kus,  A. Landau,  
 Jie Liu,  E. I. Proynov,  R. M. Richard,  R. P. Steele,  E. J. Sundstrom,  
 H. L. Woodcock III,  P. M. Zimmerman,  D. Zuev,  B. Alam,  B. Albrecht,  
 E. Alguire,  S. A. Baeppler,  D. Barton,  Z. Benda,  Y. A. Bernard,  
 E. J. Berquist,  K. B. Bravaya,  H. Burton,  K. Carter-Fenk,  D. Casanova,  
 Chun-Min Chang,  Yunqing Chen,  A. Chien,  K. D. Closser,  M. P. Coons,  
 S. Coriani,  S. Dasgupta,  A. L. Dempwolff,  M. Diedenhofen,  Hainam Do,  
 R. G. Edgar,  Po-Tung Fang,  S. Faraji,  S. Fatehi,  Qingguo Feng,  
 J. Fosso-Tande,  J. Gayvert,  Qinghui Ge,  A. Ghysels,  G. Gidofalvi,  
 J. Gomes,  J. Gonthier,  A. Gunina,  D. Hait,  M. W. D. Hanson-Heine,  
 P. H. P. Harbach,  A. W. Hauser,  M. F. Herbst,  J. E. Herr,  
 E. G. Hohenstein,  Z. C. Holden,  Kerwin Hui,  B. C. Huynh,  T.-C. Jagau,  
 Hyunjun Ji,  B. Kaduk,  K. Khistyaev,  Jaehoon Kim,  P. Klunzinger,  K. Koh,  
 D. Kosenkov,  L. Koulias,  T. Kowalczyk,  C. M. Krauter,  A. Kunitsa,  
 Ka Un Lao,  A. Laurent,  K. V. Lawler,  Joonho Lee,  D. Lefrancois,  
 S. Lehtola,  D. S. Levine,  Yi-Pei Li,  You-Sheng Lin,  Fenglai Liu,  
 Kuan-Yu Liu,  E. Livshits,  M. Loipersberger,  A. Luenser,  P. Manohar,  
 E. Mansoor,  S. F. Manzer,  Shan-Ping Mao,  Yuezhi Mao,  N. Mardirossian,  
 A. V. Marenich,  T. Markovich,  L. A. Martinez-Martinez,  S. A. Maurer,  
 N. J. Mayhall,  S. C. McKenzie,  J.-M. Mewes,  P. Morgante,  A. F. Morrison,  
 J. W. Mullinax,  K. Nanda,  T. S. Nguyen-Beck,  R. Olivares-Amaya,  
 K. J. Oosterbaan,  J. A. Parkhill,  S. K. Paul,  F. Pavosevic,  Zheng Pei,  
 T. M. Perrine,  F. Plasser,  P. Pokhilko,  S. Prager,  A. Prociuk,  
 E. Ramos,  B. Rana,  D. R. Rehn,  F. Rob,  M. Scheurer,  M. Schneider,  
 N. Sergueev,  S. M. Sharada,  S. Sharma,  D. W. Small,  T. Stauch,  
 C. J. Stein,  T. Stein,  Yu-Chuan Su,  S. P. Veccham,  Zhen Tao,  
 A. J. W. Thom,  A. Tkatchenko,  T. Tsuchimochi,  N. M. Tubman,  L. Vogt,  
 M. L. Vidal,  O. Vydrov,  M. A. Watson,  J. Wenzel,  M. de Wergifosse,  
 T. A. Wesolowski,  A. White,  J. Witte,  A. Yamada,  Jun Yang,  K. Yao,  
 S. Yeganeh,  S. R. Yost,  Zhi-Qiang You,  A. Zech,  Igor Ying Zhang,  
 Xing Zhang,  Yan Zhao,  Ying Zhu,  B. R. Brooks,  G. K. L. Chan,  
 C. J. Cramer,  M. S. Gordon,  W. J. Hehre,  A. Klamt,  M. W. Schmidt,  
 C. D. Sherrill,  D. G. Truhlar,  A. Aspuru-Guzik,  R. Baer,  A. T. Bell,  
 N. A. Besley,  Jeng-Da Chai,  A. E. DePrince, III,  R. A. DiStasio Jr.,  
 A. Dreuw,  B. D. Dunietz,  T. R. Furlani,  Chao-Ping Hsu,  Yousung Jung,  
 Jing Kong,  D. S. Lambrecht,  WanZhen Liang,  C. Ochsenfeld,  
 V. A. Rassolov,  L. V. Slipchenko,  J. E. Subotnik,  T. Van Voorhis,  
 J. M. Herbert,  A. I. Krylov,  P. M. W. Gill,  M. Head-Gordon

 Contributors to earlier versions of Q-Chem not listed above: 
 R. D. Adamson,  B. Austin,  J. Baker,  G. J. O. Beran,  K. Brandhorst,  
 S. T. Brown,  E. F. C. Byrd,  A. K. Chakraborty,  C.-L. Cheng,  
 Siu Hung Chien,  D. M. Chipman,  D. L. Crittenden,  H. Dachsel,  
 R. J. Doerksen,  A. D. Dutoi,  L. Fusti-Molnar,  W. A. Goddard III,  
 A. Golubeva-Zadorozhnaya,  S. R. Gwaltney,  G. Hawkins,  A. Heyden,  
 S. Hirata,  G. Kedziora,  F. J. Keil,  C. Kelley,  Jihan Kim,  R. A. King,  
 R. Z. Khaliullin,  P. P. Korambath,  W. Kurlancheek,  A. M. Lee,  M. S. Lee,  
 S. V. Levchenko,  Ching Yeh Lin,  D. Liotard,  R. C. Lochan,  I. Lotan,  
 P. E. Maslen,  N. Nair,  D. P. O'Neill,  D. Neuhauser,  E. Neuscamman,  
 C. M. Oana,  R. Olson,  B. Peters,  R. Peverati,  P. A. Pieniazek,  
 Y. M. Rhee,  J. Ritchie,  M. A. Rohrdanz,  E. Rosta,  N. J. Russ,  
 H. F. Schaefer III,  N. E. Schultz,  N. Shenvi,  A. C. Simmonett,  A. Sodt,  
 D. Stuck,  K. S. Thanthiriwatte,  V. Vanovschi,  Tao Wang,  A. Warshel,  
 C. F. Williams,  Q. Wu,  X. Xu,  W. Zhang

 Please cite Q-Chem as follows:
 Y. Shao et al., Mol. Phys. 113, 184-215 (2015)
 DOI: 10.1080/00268976.2014.952696

 Q-Chem 5.3.0 for Intel X86 EM64T Linux

 Parts of Q-Chem use Armadillo 9.800.1 (Horizon Scraper).
 http://arma.sourceforge.net/

 Q-Chem begins on Tue Aug 11 18:40:52 2020  

n0090.mhg0
Host: 0

     Scratch files written to /local/scratch/users/yhljason/PH3_wM05-D_aug-pc-4.inp20200811154239//
Processing $rem in /clusterfs/mhg/diptarka/qchem_transmom//config/preferences:
Processing $rem in /global/home/users/yhljason/.qchemrc:

Checking the input file for inconsistencies... 	...done.

--------------------------------------------------------------
User input:
--------------------------------------------------------------
$molecule
0 1
P1      0.0000  0.0000  0.0000
H2      0.0000  -1.1932 -0.7717
H3      1.0333  0.5966  -0.7717
H4      -1.0333 0.5966  -0.7717
$end

$rem
jobtype sp
method wM05-D
xc_grid 000099000590
basis aug-pc-4
max_scf_cycles 200
thresh 14
scf_convergence 8
scf_algorithm gdm
symmetry false
sym_ignore true
unrestricted true
gen_scfman true
internal_stability_iter 15
internal_stability_davidson_iter 200
mem_total 64000
mem_static 1500
n_frozen_core 0
$end


--------------------------------------------------------------
 ----------------------------------------------------------------
             Standard Nuclear Orientation (Angstroms)
    I     Atom           X                Y                Z
 ----------------------------------------------------------------
    1      P       0.0000000000     0.0000000000     0.0000000000
    2      H       0.0000000000    -1.1932000000    -0.7717000000
    3      H       1.0333000000     0.5966000000    -0.7717000000
    4      H      -1.0333000000     0.5966000000    -0.7717000000
 ----------------------------------------------------------------
 Nuclear Repulsion Energy =          17.52618304 hartrees
 There are        9 alpha and        9 beta electrons
 Requested basis set is aug-pc-4
 There are 103 shells and 405 basis functions

 Total QAlloc Memory Limit  64000 MB
 Mega-Array Size      1467 MB
 MEM_STATIC part      1500 MB

                       Distance Matrix (Angstroms)
             P (  1)   H (  2)   H (  3)
   H (  2)  1.421002
   H (  3)  1.420972  2.066662
   H (  4)  1.420972  2.066662  2.066600

 A cutoff of  1.0D-14 yielded   5296 shell pairs
 There are     82740 function pairs (    146160 Cartesian)
 Smallest overlap matrix eigenvalue = 1.14E-06

 Scale SEOQF with 1.000000e-01/1.000000e-01/1.000000e-01

 Standard Electronic Orientation quadrupole field applied
 Guess from superposition of atomic densities
 Warning:  Energy on first SCF cycle will be non-variational
 SAD guess density has 18.000000 electrons

 -----------------------------------------------------------------------
  General SCF calculation program by
  Eric Jon Sundstrom, Paul Horn, Yuezhi Mao, Dmitri Zuev, Alec White,
  David Stuck, Shaama M.S., Shane Yost, Joonho Lee, David Small,
  Daniel Levine, Susi Lehtola, Hugh Burton, Evgeny Epifanovsky,
  Bang C. Huynh
 -----------------------------------------------------------------------
 Exchange:     0.3696 Hartree-Fock + 1.0000 wM05-D + LR-HF
 Correlation:  1.0000 wM05-D
 Using Euler-Maclaurin-Lebedev (99,590) quadrature formula
 Dispersion:   Grimme D
Running Object-Oriented UKS (UHF)
performing a single roothaan step with Fock from read density so that orbitals are available to all algorithms
energy of the guess density (C=0) -343.040567452038
We will preform up to 15 macro iterations over saddle points until a stable solution is found
Energy prior to optimization (guess energy) = -343.141890096215
Begin Timing: Total SCF Calculation
Begin Timing: SCF Single Stationary Point Calculation
begin iterations for algorithm: GDM          
the SCF tolerance is set to 1.00e-08
    1    -343.1418900962      2.75e-02     00000  Normal BFGS step
    2    -343.1454107096      8.00e-03     00000  Normal BFGS step
    3    -343.1458344695      1.21e-03     00000  Normal BFGS step
    4    -343.1458570125      3.71e-04     00000  Normal BFGS step
    5    -343.1458585468      7.74e-05     00000  Normal BFGS step
    6    -343.1458586487      2.63e-05     00000  Normal BFGS step
    7    -343.1458586546      5.31e-06     00000  Normal BFGS step
    8    -343.1458586549      7.98e-07     00000  Normal BFGS step
    9    -343.1458586549      2.42e-07     00000  Normal BFGS step
   10    -343.1458586549      4.88e-08     00000  Normal BFGS step
   11    -343.1458586549      7.19e-09     00000 Convergence criterion met
Timing for Single Stationary Point: 3338.00s (wall), 26522.38s (cpu)
Begin Timing: Stability
===================================================
Beginning Test for Internal Stability
===================================================
generating davidson guess vectors based on koopmans excitations
 Warning: Hessian-vector products not implemented
 Finite difference Hessian-vector products will be used.
computing hessian-vector products by finite difference
    1      6.68e-01     00000 Davidson Iteration
computing hessian-vector products by finite difference
    2      8.91e-01     00000 Davidson Iteration
computing hessian-vector products by finite difference
    3      1.41e-01     00000 Davidson Iteration
computing hessian-vector products by finite difference
    4      5.44e-02     00000 Davidson Iteration
computing hessian-vector products by finite difference
    5      1.45e-02     00000 Davidson Iteration
computing hessian-vector products by finite difference
    6      6.28e-03     00000 Davidson Iteration
computing hessian-vector products by finite difference
    7      2.89e-03     00000 Davidson Iteration
computing hessian-vector products by finite difference
    8      3.49e-03     00000 Davidson Iteration
computing hessian-vector products by finite difference
    9      1.01e-02     00000 Davidson Iteration
computing hessian-vector products by finite difference
   10      2.38e-03     00000 Davidson Iteration
computing hessian-vector products by finite difference
   11      9.89e-04     00000 Davidson Iteration
computing hessian-vector products by finite difference
   12      1.05e-03     00000 Davidson Iteration
computing hessian-vector products by finite difference
   13      4.51e-04     00000 Davidson Iteration
computing hessian-vector products by finite difference
   14      4.37e-04     00000 Davidson Iteration
computing hessian-vector products by finite difference
   15      2.01e-04     00000 Davidson Iteration
computing hessian-vector products by finite difference
   16      2.07e-04     00000 Davidson Iteration
computing hessian-vector products by finite difference
   17      1.98e-04     00000 Davidson Iteration
computing hessian-vector products by finite difference
   18      1.94e-04     00000 Davidson Iteration
computing hessian-vector products by finite difference
   19      9.82e-05     00000 Davidson Iteration
computing hessian-vector products by finite difference
   20      9.70e-05     00000 Davidson Iteration
computing hessian-vector products by finite difference
   21      1.18e-04     00000 Davidson Iteration
computing hessian-vector products by finite difference
   22      6.57e-05     00000 Davidson Converged
converged_eigenvalues
   0.3855
   0.4775
   0.3854
Threshold for negative eigenvalues: -1.0e-05
solution was a local minimum (stable)
===================================================
End Test for Internal Stability
===================================================
Timing for Internal Stability: 32522.00s (wall), 258118.18s (cpu)
Our SCF solution is stable!
Timing for Total SCF: 35860.00s (wall), 284640.71s (cpu)
 Total energy in the final basis set =     -343.1458586549
<S^2> =         -0.000000000
    ==================================================
              The end of Object-Oriented SCFman       
    ==================================================

 --------------------------------------------------------------

                    Orbital Energies (a.u.)
 --------------------------------------------------------------

 Alpha MOs
 -- Occupied --
-77.4985  -6.6990  -4.8790  -4.8790  -4.8761  -0.7480  -0.4696  -0.4696
 -0.3607
 -- Virtual --
  0.0258   0.0380   0.0380   0.0407   0.0529   0.0529   0.0806   0.0907
  0.0907   0.1146   0.1146   0.1172   0.1297   0.1297   0.1325   0.1476
  0.1580   0.1629   0.1629   0.1676   0.1676   0.1872   0.1872   0.1891
  0.1990   0.1990   0.2192   0.2192   0.2194   0.2441   0.2694   0.2694
  0.2758   0.2778   0.2835   0.2946   0.2946   0.3000   0.3000   0.3013
  0.3240   0.3339   0.3370   0.3370   0.3532   0.3532   0.3619   0.3622
  0.3622   0.3762   0.3762   0.3876   0.3943   0.3943   0.4139   0.4211
  0.4211   0.4295   0.4539   0.4549   0.4549   0.4649   0.4649   0.4957
  0.5086   0.5086   0.5145   0.5325   0.5325   0.5413   0.5467   0.5527
  0.5527   0.5679   0.5679   0.5692   0.5711   0.5813   0.5897   0.5897
  0.5997   0.5997   0.6046   0.6099   0.6099   0.6177   0.6338   0.6338
  0.6722   0.6722   0.6787   0.6787   0.6870   0.7010   0.7011   0.7236
  0.7261   0.7340   0.7340   0.7423   0.7473   0.7473   0.7822   0.7883
  0.7883   0.8060   0.8306   0.8344   0.8344   0.8371   0.8378   0.8410
  0.8410   0.8427   0.8427   0.8573   0.8633   0.8667   0.8667   0.8772
  0.8772   0.8813   0.9162   0.9162   0.9281   0.9281   0.9427   0.9449
  0.9501   0.9517   0.9517   0.9652   0.9652   0.9834   0.9834   1.0002
  1.0002   1.0221   1.0221   1.0665   1.0665   1.1170   1.1170   1.1422
  1.1599   1.1599   1.2527   1.2907   1.3066   1.3066   1.3461   1.3713
  1.3713   1.4129   1.4129   1.4238   1.4774   1.4774   1.4873   1.5278
  1.5658   1.5894   1.6033   1.6033   1.6269   1.6269   1.6644   1.6645
  1.6977   1.7087   1.7484   1.7484   1.7948   1.7948   1.8419   1.8790
  1.8911   1.8911   1.8943   1.9419   1.9419   2.3899   2.3899   2.3967
  2.4274   2.4369   2.4369   2.5267   2.5267   2.6759   2.6847   2.6847
  2.7274   2.8629   2.8629   2.8904   2.9662   2.9662   3.0273   3.0273
  3.0422   3.0547   3.1152   3.1154   3.1154   3.1404   3.1404   3.2210
  3.2355   3.3838   3.3965   3.3965   3.4530   3.5200   3.5200   3.6032
  3.6064   3.6064   3.6355   3.6355   3.6359   3.6920   3.6920   3.7771
  3.7950   3.8133   3.8133   3.8592   3.8873   3.8873   3.8967   3.9647
  3.9929   3.9929   4.0678   4.0679   4.1984   4.1984   4.2680   4.4733
  4.4733   4.6959   4.6991   4.6991   4.9247   5.0333   5.0333   5.0710
  5.1989   5.1990   5.3225   5.3280   5.3507   5.3507   5.4557   5.5237
  5.5237   5.5757   5.5757   5.8571   5.8776   5.8777   5.9187   5.9187
  6.0304   6.1443   6.3804   6.3804   6.6283   6.6284   6.8979   7.3194
  7.3194   7.6307   7.6308   7.6423   7.8245   7.8245   7.8249   8.0666
  8.0666   8.0719   8.2579   8.2606   8.2606   8.3640   8.3793   8.3793
  8.6319   8.6319   8.6828   8.7093   8.7509   8.7509   8.8482   8.8688
  8.8688   9.1060   9.1246   9.1330   9.1330   9.2548   9.2548   9.6565
  9.6889   9.6889  10.6018  11.1004  11.1004  11.1912  11.2305  11.2329
 11.2330  11.4912  11.4913  11.7726  11.9406  11.9406  11.9430  11.9763
 11.9763  11.9932  12.1338  12.1338  12.2889  12.2890  12.3237  12.3431
 12.4786  12.4787  12.5321  12.6215  12.6215  12.6476  13.0559  13.0560
 13.4174  16.1072  16.1083  16.1083  16.1104  16.1105  16.1163  16.1606
 16.1838  16.1839  16.2086  16.2148  16.2149  16.2680  16.2722  16.2723
 16.4352  16.4513  16.6383  16.6383  16.6647  16.6648  16.8233  16.8233
 16.9333  17.1534  17.1539  17.1540  17.5379  17.5477  17.5477  18.7599
 18.7599  21.9463  21.9463  21.9571  21.9655  21.9950  21.9950  22.3847
 22.5798  22.5798  26.1924  37.1828  37.1829  37.2670  59.1632  59.1632
 59.1656  59.9175  59.9175  84.6703  84.6703  84.6798  84.6825  84.7019
 84.7019  85.0294  85.0295  85.1043

 Beta MOs
 -- Occupied --
-77.4985  -6.6990  -4.8790  -4.8790  -4.8761  -0.7480  -0.4696  -0.4696
 -0.3607
 -- Virtual --
  0.0258   0.0380   0.0380   0.0407   0.0529   0.0529   0.0806   0.0907
  0.0907   0.1146   0.1146   0.1172   0.1297   0.1297   0.1325   0.1476
  0.1580   0.1629   0.1629   0.1676   0.1676   0.1872   0.1872   0.1891
  0.1990   0.1990   0.2192   0.2192   0.2194   0.2441   0.2694   0.2694
  0.2758   0.2778   0.2835   0.2946   0.2946   0.3000   0.3000   0.3013
  0.3240   0.3339   0.3370   0.3370   0.3532   0.3532   0.3619   0.3622
  0.3622   0.3762   0.3762   0.3876   0.3943   0.3943   0.4139   0.4211
  0.4211   0.4295   0.4539   0.4549   0.4549   0.4649   0.4649   0.4957
  0.5086   0.5086   0.5145   0.5325   0.5325   0.5413   0.5467   0.5527
  0.5527   0.5679   0.5679   0.5692   0.5711   0.5813   0.5897   0.5897
  0.5997   0.5997   0.6046   0.6099   0.6099   0.6177   0.6338   0.6338
  0.6722   0.6722   0.6787   0.6787   0.6870   0.7010   0.7011   0.7236
  0.7261   0.7340   0.7340   0.7423   0.7473   0.7473   0.7822   0.7883
  0.7883   0.8060   0.8306   0.8344   0.8344   0.8371   0.8378   0.8410
  0.8410   0.8427   0.8427   0.8573   0.8633   0.8667   0.8667   0.8772
  0.8772   0.8813   0.9162   0.9162   0.9281   0.9281   0.9427   0.9449
  0.9501   0.9517   0.9517   0.9652   0.9652   0.9834   0.9834   1.0002
  1.0002   1.0221   1.0221   1.0665   1.0665   1.1170   1.1170   1.1422
  1.1599   1.1599   1.2527   1.2907   1.3066   1.3066   1.3461   1.3713
  1.3713   1.4129   1.4129   1.4238   1.4774   1.4774   1.4873   1.5278
  1.5658   1.5894   1.6033   1.6033   1.6269   1.6269   1.6644   1.6645
  1.6977   1.7087   1.7484   1.7484   1.7948   1.7948   1.8419   1.8790
  1.8911   1.8911   1.8943   1.9419   1.9419   2.3899   2.3899   2.3967
  2.4274   2.4369   2.4369   2.5267   2.5267   2.6759   2.6847   2.6847
  2.7274   2.8629   2.8629   2.8904   2.9662   2.9662   3.0273   3.0273
  3.0422   3.0547   3.1152   3.1154   3.1154   3.1404   3.1404   3.2210
  3.2355   3.3838   3.3965   3.3965   3.4530   3.5200   3.5200   3.6032
  3.6064   3.6064   3.6355   3.6355   3.6359   3.6920   3.6920   3.7771
  3.7950   3.8133   3.8133   3.8592   3.8873   3.8873   3.8967   3.9647
  3.9929   3.9929   4.0678   4.0679   4.1984   4.1984   4.2680   4.4733
  4.4733   4.6959   4.6991   4.6991   4.9247   5.0333   5.0333   5.0710
  5.1989   5.1990   5.3225   5.3280   5.3507   5.3507   5.4557   5.5237
  5.5237   5.5757   5.5757   5.8571   5.8776   5.8777   5.9187   5.9187
  6.0304   6.1443   6.3804   6.3804   6.6283   6.6284   6.8979   7.3194
  7.3194   7.6307   7.6308   7.6423   7.8245   7.8245   7.8249   8.0666
  8.0666   8.0719   8.2579   8.2606   8.2606   8.3640   8.3793   8.3793
  8.6319   8.6319   8.6828   8.7093   8.7509   8.7509   8.8482   8.8688
  8.8688   9.1060   9.1246   9.1330   9.1330   9.2548   9.2548   9.6565
  9.6889   9.6889  10.6018  11.1004  11.1004  11.1912  11.2305  11.2329
 11.2330  11.4912  11.4913  11.7726  11.9406  11.9406  11.9430  11.9763
 11.9763  11.9932  12.1338  12.1338  12.2889  12.2890  12.3237  12.3431
 12.4786  12.4787  12.5321  12.6215  12.6215  12.6476  13.0559  13.0560
 13.4174  16.1072  16.1083  16.1083  16.1104  16.1105  16.1163  16.1606
 16.1838  16.1839  16.2086  16.2148  16.2149  16.2680  16.2722  16.2723
 16.4352  16.4513  16.6383  16.6383  16.6647  16.6648  16.8233  16.8233
 16.9333  17.1534  17.1539  17.1540  17.5379  17.5477  17.5477  18.7599
 18.7599  21.9463  21.9463  21.9571  21.9655  21.9950  21.9950  22.3847
 22.5798  22.5798  26.1924  37.1828  37.1829  37.2670  59.1632  59.1632
 59.1656  59.9175  59.9175  84.6703  84.6703  84.6798  84.6825  84.7019
 84.7019  85.0294  85.0295  85.1043
 --------------------------------------------------------------

          Ground-State Mulliken Net Atomic Charges

     Atom                 Charge (a.u.)    Spin (a.u.)
  --------------------------------------------------------
      1 P                     0.267476       0.000000
      2 H                    -0.088723       0.000000
      3 H                    -0.089377       0.000000
      4 H                    -0.089377       0.000000
  --------------------------------------------------------
  Sum of atomic charges =    -0.000000
  Sum of spin   charges =     0.000000

 -----------------------------------------------------------------
                    Cartesian Multipole Moments
 -----------------------------------------------------------------
    Charge (ESU x 10^10)
                -0.0000
    Dipole Moment (Debye)
         X       0.0000      Y      -0.0002      Z      -0.5976
       Tot       0.5976
    Quadrupole Moments (Debye-Ang)
        XX     -14.7854     XY      -0.0000     YY     -14.7852
        XZ      -0.0000     YZ       0.0000     ZZ     -16.8130
    Octopole Moments (Debye-Ang^2)
       XXX       0.0000    XXY       0.0855    XYY       0.0000
       YYY      -0.0857    XXZ       1.5892    XYZ       0.0000
       YYZ       1.5887    XZZ       0.0000    YZZ      -0.0001
       ZZZ       5.4587
    Hexadecapole Moments (Debye-Ang^3)
      XXXX     -31.2243   XXXY       0.0000   XXYY     -10.4081
      XYYY      -0.0000   YYYY     -31.2242   XXXZ      -0.0000
      XXYZ      -0.6554   XYYZ       0.0000   YYYZ       0.6557
      XXZZ     -11.0167   XYZZ      -0.0000   YYZZ     -11.0165
      XZZZ       0.0000   YZZZ       0.0001   ZZZZ     -37.2925
 -----------------------------------------------------------------
Archival summary:
1\1\n0090.mhg0\SP\ProcedureUnspecified\BasisUnspecified\13\yhljason\WedAug1204:48:462020WedAug1204:48:462020\0\\#,ProcedureUnspecified,BasisUnspecified,\\0,1\P\H,1,1.42097\H,1,1.42097,2,93.3007\H,1,1.421,2,93.3031,3,-93.5051,0\\\@

 Total job time:  36473.98s(wall), 289509.98s(cpu) 
 Wed Aug 12 04:48:46 2020

        *************************************************************
        *                                                           *
        *  Thank you very much for using Q-Chem.  Have a nice day.  *
        *                                                           *
        *************************************************************


