                  Welcome to Q-Chem
     A Quantum Leap Into The Future Of Chemistry


 Q-Chem 5.3 (devel), Q-Chem, Inc., Pleasanton, CA (2020)

 Yihan Shao,  Zhengting Gan,  E. Epifanovsky,  A. T. B. Gilbert,  M. Wormit,  
 J. Kussmann,  A. W. Lange,  A. Behn,  Jia Deng,  Xintian Feng,  D. Ghosh,  
 M. Goldey,  P. R. Horn,  L. D. Jacobson,  I. Kaliman,  T. Kus,  A. Landau,  
 Jie Liu,  E. I. Proynov,  R. M. Richard,  R. P. Steele,  E. J. Sundstrom,  
 H. L. Woodcock III,  P. M. Zimmerman,  D. Zuev,  B. Alam,  B. Albrecht,  
 E. Alguire,  S. A. Baeppler,  D. Barton,  Z. Benda,  Y. A. Bernard,  
 E. J. Berquist,  K. B. Bravaya,  H. Burton,  K. Carter-Fenk,  D. Casanova,  
 Chun-Min Chang,  Yunqing Chen,  A. Chien,  K. D. Closser,  M. P. Coons,  
 S. Coriani,  S. Dasgupta,  A. L. Dempwolff,  M. Diedenhofen,  Hainam Do,  
 R. G. Edgar,  Po-Tung Fang,  S. Faraji,  S. Fatehi,  Qingguo Feng,  
 J. Fosso-Tande,  J. Gayvert,  Qinghui Ge,  A. Ghysels,  G. Gidofalvi,  
 J. Gomes,  J. Gonthier,  A. Gunina,  D. Hait,  M. W. D. Hanson-Heine,  
 P. H. P. Harbach,  A. W. Hauser,  M. F. Herbst,  J. E. Herr,  
 E. G. Hohenstein,  Z. C. Holden,  Kerwin Hui,  B. C. Huynh,  T.-C. Jagau,  
 Hyunjun Ji,  B. Kaduk,  K. Khistyaev,  Jaehoon Kim,  P. Klunzinger,  K. Koh,  
 D. Kosenkov,  L. Koulias,  T. Kowalczyk,  C. M. Krauter,  A. Kunitsa,  
 Ka Un Lao,  A. Laurent,  K. V. Lawler,  Joonho Lee,  D. Lefrancois,  
 S. Lehtola,  D. S. Levine,  Yi-Pei Li,  You-Sheng Lin,  Fenglai Liu,  
 Kuan-Yu Liu,  E. Livshits,  M. Loipersberger,  A. Luenser,  P. Manohar,  
 E. Mansoor,  S. F. Manzer,  Shan-Ping Mao,  Yuezhi Mao,  N. Mardirossian,  
 A. V. Marenich,  T. Markovich,  L. A. Martinez-Martinez,  S. A. Maurer,  
 N. J. Mayhall,  S. C. McKenzie,  J.-M. Mewes,  P. Morgante,  A. F. Morrison,  
 J. W. Mullinax,  K. Nanda,  T. S. Nguyen-Beck,  R. Olivares-Amaya,  
 K. J. Oosterbaan,  J. A. Parkhill,  S. K. Paul,  F. Pavosevic,  Zheng Pei,  
 T. M. Perrine,  F. Plasser,  P. Pokhilko,  S. Prager,  A. Prociuk,  
 E. Ramos,  B. Rana,  D. R. Rehn,  F. Rob,  M. Scheurer,  M. Schneider,  
 N. Sergueev,  S. M. Sharada,  S. Sharma,  D. W. Small,  T. Stauch,  
 C. J. Stein,  T. Stein,  Yu-Chuan Su,  S. P. Veccham,  Zhen Tao,  
 A. J. W. Thom,  A. Tkatchenko,  T. Tsuchimochi,  N. M. Tubman,  L. Vogt,  
 M. L. Vidal,  O. Vydrov,  M. A. Watson,  J. Wenzel,  M. de Wergifosse,  
 T. A. Wesolowski,  A. White,  J. Witte,  A. Yamada,  Jun Yang,  K. Yao,  
 S. Yeganeh,  S. R. Yost,  Zhi-Qiang You,  A. Zech,  Igor Ying Zhang,  
 Xing Zhang,  Yan Zhao,  Ying Zhu,  B. R. Brooks,  G. K. L. Chan,  
 C. J. Cramer,  M. S. Gordon,  W. J. Hehre,  A. Klamt,  M. W. Schmidt,  
 C. D. Sherrill,  D. G. Truhlar,  A. Aspuru-Guzik,  R. Baer,  A. T. Bell,  
 N. A. Besley,  Jeng-Da Chai,  A. E. DePrince, III,  R. A. DiStasio Jr.,  
 A. Dreuw,  B. D. Dunietz,  T. R. Furlani,  Chao-Ping Hsu,  Yousung Jung,  
 Jing Kong,  D. S. Lambrecht,  WanZhen Liang,  C. Ochsenfeld,  
 V. A. Rassolov,  L. V. Slipchenko,  J. E. Subotnik,  T. Van Voorhis,  
 J. M. Herbert,  A. I. Krylov,  P. M. W. Gill,  M. Head-Gordon

 Contributors to earlier versions of Q-Chem not listed above: 
 R. D. Adamson,  B. Austin,  J. Baker,  G. J. O. Beran,  K. Brandhorst,  
 S. T. Brown,  E. F. C. Byrd,  A. K. Chakraborty,  C.-L. Cheng,  
 Siu Hung Chien,  D. M. Chipman,  D. L. Crittenden,  H. Dachsel,  
 R. J. Doerksen,  A. D. Dutoi,  L. Fusti-Molnar,  W. A. Goddard III,  
 A. Golubeva-Zadorozhnaya,  S. R. Gwaltney,  G. Hawkins,  A. Heyden,  
 S. Hirata,  G. Kedziora,  F. J. Keil,  C. Kelley,  Jihan Kim,  R. A. King,  
 R. Z. Khaliullin,  P. P. Korambath,  W. Kurlancheek,  A. M. Lee,  M. S. Lee,  
 S. V. Levchenko,  Ching Yeh Lin,  D. Liotard,  R. C. Lochan,  I. Lotan,  
 P. E. Maslen,  N. Nair,  D. P. O'Neill,  D. Neuhauser,  E. Neuscamman,  
 C. M. Oana,  R. Olson,  B. Peters,  R. Peverati,  P. A. Pieniazek,  
 Y. M. Rhee,  J. Ritchie,  M. A. Rohrdanz,  E. Rosta,  N. J. Russ,  
 H. F. Schaefer III,  N. E. Schultz,  N. Shenvi,  A. C. Simmonett,  A. Sodt,  
 D. Stuck,  K. S. Thanthiriwatte,  V. Vanovschi,  Tao Wang,  A. Warshel,  
 C. F. Williams,  Q. Wu,  X. Xu,  W. Zhang

 Please cite Q-Chem as follows:
 Y. Shao et al., Mol. Phys. 113, 184-215 (2015)
 DOI: 10.1080/00268976.2014.952696

 Q-Chem 5.3.0 for Intel X86 EM64T Linux

 Parts of Q-Chem use Armadillo 9.800.1 (Horizon Scraper).
 http://arma.sourceforge.net/

 Q-Chem begins on Tue Aug 11 15:46:15 2020  

n0098.mhg0
Host: 0

     Scratch files written to /local/scratch/users/yhljason/PH3O_B97-2_aug-pc-4.inp20200811154202//
Processing $rem in /clusterfs/mhg/diptarka/qchem_transmom//config/preferences:
Processing $rem in /global/home/users/yhljason/.qchemrc:

Checking the input file for inconsistencies... 	...done.

--------------------------------------------------------------
User input:
--------------------------------------------------------------
$molecule
0 1
P        0.0000000000      0.0000000000     -0.3836153961
H       -1.2521120981      0.0000000000     -1.0264054293
H        0.6260878053     -1.0843997178     -1.0264202208
H        0.6260878053      1.0843997178     -1.0264202208
O        0.0000000000      0.0000000008      1.1041846038
$end

$rem
jobtype sp
method B97-2
xc_grid 000099000590
basis aug-pc-4
max_scf_cycles 200
thresh 14
scf_convergence 8
scf_algorithm gdm
symmetry false
sym_ignore true
unrestricted true
gen_scfman true
internal_stability_iter 15
internal_stability_davidson_iter 200
mem_total 64000
mem_static 1500
n_frozen_core 0
$end


--------------------------------------------------------------
 ----------------------------------------------------------------
             Standard Nuclear Orientation (Angstroms)
    I     Atom           X                Y                Z
 ----------------------------------------------------------------
    1      P       0.0000000000     0.0000000000    -0.3836153961
    2      H      -1.2521120981     0.0000000000    -1.0264054293
    3      H       0.6260878053    -1.0843997178    -1.0264202208
    4      H       0.6260878053     1.0843997178    -1.0264202208
    5      O       0.0000000000     0.0000000008     1.1041846038
 ----------------------------------------------------------------
 Nuclear Repulsion Energy =          65.47102974 hartrees
 There are       13 alpha and       13 beta electrons
 Requested basis set is aug-pc-4
 There are 136 shells and 550 basis functions

 Total QAlloc Memory Limit  64000 MB
 Mega-Array Size      1467 MB
 MEM_STATIC part      1500 MB

                       Distance Matrix (Angstroms)
             P (  1)   H (  2)   H (  3)   H (  4)
   H (  2)  1.407467
   H (  3)  1.407518  2.168769
   H (  4)  1.407518  2.168769  2.168799
   O (  5)  1.487800  2.471275  2.471313  2.471313

 A cutoff of  1.0D-14 yielded   9053 shell pairs
 There are    150269 function pairs (    272924 Cartesian)
 Smallest overlap matrix eigenvalue = 4.85E-07
 Linear dependence detected in AO basis
 Tighter screening thresholds may be required for diffuse basis sets
 Use S2THRESH > 14 and THRESH = 14 in case of SCF convergence issues
 Number of orthogonalized atomic orbitals = 547
 Maximum deviation from orthogonality = 3.333E-10

 Scale SEOQF with 1.000000e-01/1.000000e-01/1.000000e-01

 Standard Electronic Orientation quadrupole field applied
 Nucleus-field energy     =    -0.0000000014 hartrees
 Guess from superposition of atomic densities
 Warning:  Energy on first SCF cycle will be non-variational
 SAD guess density has 26.000000 electrons

 -----------------------------------------------------------------------
  General SCF calculation program by
  Eric Jon Sundstrom, Paul Horn, Yuezhi Mao, Dmitri Zuev, Alec White,
  David Stuck, Shaama M.S., Shane Yost, Joonho Lee, David Small,
  Daniel Levine, Susi Lehtola, Hugh Burton, Evgeny Epifanovsky,
  Bang C. Huynh
 -----------------------------------------------------------------------
 Exchange:     0.2100 Hartree-Fock + 1.0000 B97-2
 Correlation:  1.0000 B97-2
 Using Euler-Maclaurin-Lebedev (99,590) quadrature formula
Running Object-Oriented UKS (UHF)
performing a single roothaan step with Fock from read density so that orbitals are available to all algorithms
energy of the guess density (C=0) -418.641342681570
We will preform up to 15 macro iterations over saddle points until a stable solution is found
Energy prior to optimization (guess energy) = -418.311785581172
Begin Timing: Total SCF Calculation
Begin Timing: SCF Single Stationary Point Calculation
begin iterations for algorithm: GDM          
the SCF tolerance is set to 1.00e-08
    1    -418.3117855812      2.09e-01     00000  Descent step
    2    -418.3757050019      1.50e-01     00000  Descent step
    3    -418.3989119210      6.57e-02     00000  Normal BFGS step
    4    -418.4342556021      1.98e-02     00000  Normal BFGS step
    5    -418.4375397627      3.27e-03     00000  Normal BFGS step
    6    -418.4376166084      6.85e-04     00000  Normal BFGS step
    7    -418.4376217152      1.81e-04     00000  Normal BFGS step
    8    -418.4376222452      6.77e-05     00000  Normal BFGS step
    9    -418.4376223070      1.65e-05     00000  Normal BFGS step
   10    -418.4376223089      2.02e-06     00000  Normal BFGS step
   11    -418.4376223090      4.09e-07     00000  Normal BFGS step
   12    -418.4376223090      1.05e-07     00000  Normal BFGS step
   13    -418.4376223090      1.92e-08     00000  Normal BFGS step
   14    -418.4376223090      9.40e-09     00000 Convergence criterion met
Timing for Single Stationary Point: 5930.00s (wall), 46782.81s (cpu)
Begin Timing: Stability
===================================================
Beginning Test for Internal Stability
===================================================
generating davidson guess vectors based on koopmans excitations
 Warning: Hessian-vector products not implemented
 Finite difference Hessian-vector products will be used.
computing hessian-vector products by finite difference
    1      6.39e-01     00000 Davidson Iteration
computing hessian-vector products by finite difference
    2      7.18e-02     00000 Davidson Iteration
computing hessian-vector products by finite difference
    3      9.01e-02     00000 Davidson Iteration
computing hessian-vector products by finite difference
    4      1.61e-02     00000 Davidson Iteration
computing hessian-vector products by finite difference
    5      1.54e-02     00000 Davidson Iteration
computing hessian-vector products by finite difference
    6      3.59e-03     00000 Davidson Iteration
computing hessian-vector products by finite difference
    7      1.86e-03     00000 Davidson Iteration
computing hessian-vector products by finite difference
    8      8.05e-04     00000 Davidson Iteration
computing hessian-vector products by finite difference
    9      5.03e-04     00000 Davidson Iteration
computing hessian-vector products by finite difference
   10      3.66e-04     00000 Davidson Iteration
computing hessian-vector products by finite difference
   11      7.86e-05     00000 Davidson Iteration
computing hessian-vector products by finite difference
   12      8.81e-05     00000 Davidson Converged
converged_eigenvalues
   0.4149
   0.4679
Threshold for negative eigenvalues: -1.0e-05
solution was a local minimum (stable)
===================================================
End Test for Internal Stability
===================================================
Timing for Internal Stability: 25123.00s (wall), 198055.00s (cpu)
Our SCF solution is stable!
Timing for Total SCF: 31053.00s (wall), 244838.13s (cpu)
 Total energy in the final basis set =     -418.4376223090
<S^2> =         -0.000000000
    ==================================================
              The end of Object-Oriented SCFman       
    ==================================================

 --------------------------------------------------------------

                    Orbital Energies (a.u.)
 --------------------------------------------------------------

 Alpha MOs
 -- Occupied --
-77.1108 -19.1056  -6.6437  -4.7930  -4.7930  -4.7908  -0.9836  -0.6584
 -0.4515  -0.4515  -0.3972  -0.2991  -0.2991
 -- Virtual --
 -0.0201  -0.0114   0.0163   0.0163   0.0255   0.0255   0.0348   0.0382
  0.0482   0.0482   0.0600   0.0669   0.0669   0.0763   0.0763   0.0998
  0.1071   0.1071   0.1147   0.1210   0.1260   0.1260   0.1306   0.1348
  0.1414   0.1414   0.1559   0.1598   0.1598   0.1747   0.1747   0.1985
  0.1985   0.2050   0.2176   0.2194   0.2224   0.2224   0.2285   0.2286
  0.2332   0.2433   0.2433   0.2598   0.2646   0.2712   0.2712   0.2843
  0.2843   0.2849   0.3067   0.3074   0.3074   0.3094   0.3094   0.3108
  0.3224   0.3237   0.3237   0.3378   0.3442   0.3442   0.3615   0.3615
  0.3672   0.3772   0.3772   0.4039   0.4089   0.4089   0.4310   0.4310
  0.4332   0.4398   0.4478   0.4478   0.4517   0.4642   0.4657   0.4772
  0.4772   0.4790   0.4790   0.4856   0.4856   0.4905   0.5004   0.5039
  0.5085   0.5085   0.5177   0.5177   0.5355   0.5388   0.5388   0.5424
  0.5532   0.5532   0.5804   0.5854   0.5854   0.5931   0.5931   0.6078
  0.6244   0.6287   0.6287   0.6375   0.6395   0.6395   0.6540   0.6572
  0.6572   0.6658   0.6825   0.6825   0.7020   0.7021   0.7132   0.7132
  0.7148   0.7279   0.7318   0.7535   0.7535   0.7604   0.7625   0.7625
  0.7629   0.7767   0.7767   0.7935   0.8128   0.8140   0.8140   0.8232
  0.8318   0.8318   0.8380   0.8394   0.8394   0.8448   0.8496   0.8557
  0.8557   0.8680   0.8680   0.8773   0.8773   0.8799   0.8840   0.8920
  0.9095   0.9095   0.9302   0.9302   0.9370   0.9399   0.9399   0.9626
  0.9626   0.9663   0.9849   0.9849   0.9901   0.9925   1.0051   1.0051
  1.0389   1.0390   1.0546   1.0546   1.0697   1.0697   1.0882   1.1333
  1.1511   1.1744   1.1877   1.1877   1.1954   1.1954   1.2112   1.2270
  1.2270   1.2469   1.2469   1.2765   1.2813   1.2813   1.3042   1.3042
  1.3288   1.3486   1.3486   1.3812   1.4439   1.4559   1.4559   1.5015
  1.5353   1.5353   1.5402   1.5402   1.5497   1.5771   1.5771   1.5832
  1.6446   1.6446   1.6578   1.6998   1.6998   1.7005   1.7017   1.7291
  1.7400   1.7400   1.7533   1.7816   1.7816   1.8174   1.8174   1.8321
  1.8959   1.9512   1.9512   2.0083   2.0682   2.0682   2.0841   2.0841
  2.1115   2.1679   2.1815   2.2152   2.2152   2.3175   2.3583   2.3583
  2.4375   2.4375   2.5224   2.6123   2.6123   2.6341   2.6341   2.7240
  2.7438   2.7438   2.7489   2.8018   2.9013   2.9013   2.9709   2.9709
  3.0331   3.0618   3.0619   3.0715   3.1224   3.1956   3.1956   3.2639
  3.2686   3.3502   3.3502   3.3557   3.4364   3.4364   3.5131   3.5131
  3.5136   3.5454   3.5454   3.6071   3.6071   3.6208   3.6269   3.6818
  3.6919   3.6919   3.6953   3.7522   3.7887   3.7887   3.8589   3.8590
  3.8707   3.8896   3.8896   3.9408   4.0323   4.0323   4.0791   4.1740
  4.1740   4.1901   4.1901   4.2596   4.3438   4.3438   4.3732   4.4135
  4.4135   4.4224   4.5567   4.6036   4.6036   4.6972   4.6972   4.7523
  4.9136   4.9136   5.0190   5.1184   5.1794   5.1794   5.2130   5.2480
  5.2666   5.2666   5.3550   5.3550   5.4541   5.4541   5.4739   5.5628
  5.6499   5.6500   5.6939   5.8022   5.8022   5.8629   5.8629   5.8757
  6.0294   6.1563   6.1563   6.1608   6.2043   6.2043   6.2996   6.2996
  6.4989   6.5150   6.7141   6.7908   6.7908   7.0689   7.0689   7.1494
  7.2454   7.3697   7.3698   7.5945   7.5945   7.7152   7.7152   7.7560
  8.0001   8.0595   8.0595   8.1431   8.1432   8.1439   8.5682   8.5682
  8.5926   8.6599   8.7077   8.7077   8.8981   8.8981   8.9860   9.0392
  9.0392   9.0459   9.1037   9.1037   9.1282   9.2557   9.3005   9.3185
  9.3185   9.4339   9.4339   9.6408   9.6408   9.6500   9.7735   9.7735
  9.8805   9.8805   9.9224  10.0733  10.0733  10.4484  11.1315  11.2346
 11.2347  11.2852  11.3099  11.3099  11.4093  11.4909  11.6299  11.6299
 11.8230  11.8230  12.0933  12.2122  12.2122  12.2250  12.2250  12.3377
 12.3732  12.3905  12.4142  12.4142  12.4664  12.5213  12.5213  12.5591
 12.6204  12.6205  12.6705  12.6705  12.7180  12.7180  12.7499  12.8571
 12.9060  12.9151  12.9151  12.9453  13.0786  13.1000  13.1024  13.1024
 13.2771  13.3191  13.3191  13.3769  13.3769  13.5782  13.5783  13.9250
 14.0621  14.0621  14.8264  16.3766  16.3766  16.7614  16.7821  16.7821
 16.7855  16.7855  16.7857  16.7878  16.8247  16.8247  16.8933  16.8933
 16.9098  17.0177  17.0995  17.0996  17.1996  17.2104  17.2104  17.2140
 17.2141  17.2259  17.3208  17.3209  17.3961  17.4306  17.7327  17.8099
 17.8247  17.8248  18.0153  18.0153  18.2307  18.2307  18.5551  18.7341
 18.7341  18.8742  19.2912  19.2912  23.2668  23.2668  23.4896  23.5142
 23.5142  23.5287  23.5748  23.5749  23.6258  23.6258  23.9929  24.2878
 24.2878  24.3461  30.2300  30.6417  32.3155  32.3155  33.6489  40.1833
 40.1834  40.1966  59.4897  59.4897  60.1255  60.2243  60.2244  66.9706
 66.9706  67.2006  67.2006  67.7976  91.1315  91.1647  91.1647  91.1692
 91.1881  91.1881  91.6867  91.6884  91.6884 143.7226

 Beta MOs
 -- Occupied --
-77.1108 -19.1056  -6.6437  -4.7930  -4.7930  -4.7908  -0.9836  -0.6584
 -0.4515  -0.4515  -0.3972  -0.2991  -0.2991
 -- Virtual --
 -0.0201  -0.0114   0.0163   0.0163   0.0255   0.0255   0.0348   0.0382
  0.0482   0.0482   0.0600   0.0669   0.0669   0.0763   0.0763   0.0998
  0.1071   0.1071   0.1147   0.1210   0.1260   0.1260   0.1306   0.1348
  0.1414   0.1414   0.1559   0.1598   0.1598   0.1747   0.1747   0.1985
  0.1985   0.2050   0.2176   0.2194   0.2224   0.2224   0.2285   0.2286
  0.2332   0.2433   0.2433   0.2598   0.2646   0.2712   0.2712   0.2843
  0.2843   0.2849   0.3067   0.3074   0.3074   0.3094   0.3094   0.3108
  0.3224   0.3237   0.3237   0.3378   0.3442   0.3442   0.3615   0.3615
  0.3672   0.3772   0.3772   0.4039   0.4089   0.4089   0.4310   0.4310
  0.4332   0.4398   0.4478   0.4478   0.4517   0.4642   0.4657   0.4772
  0.4772   0.4790   0.4790   0.4856   0.4856   0.4905   0.5004   0.5039
  0.5085   0.5085   0.5177   0.5177   0.5355   0.5388   0.5388   0.5424
  0.5532   0.5532   0.5804   0.5854   0.5854   0.5931   0.5931   0.6078
  0.6244   0.6287   0.6287   0.6375   0.6395   0.6395   0.6540   0.6572
  0.6572   0.6658   0.6825   0.6825   0.7020   0.7021   0.7132   0.7132
  0.7148   0.7279   0.7318   0.7535   0.7535   0.7604   0.7625   0.7625
  0.7629   0.7767   0.7767   0.7935   0.8128   0.8140   0.8140   0.8232
  0.8318   0.8318   0.8380   0.8394   0.8394   0.8448   0.8496   0.8557
  0.8557   0.8680   0.8680   0.8773   0.8773   0.8799   0.8840   0.8920
  0.9095   0.9095   0.9302   0.9302   0.9370   0.9399   0.9399   0.9626
  0.9626   0.9663   0.9849   0.9849   0.9901   0.9925   1.0051   1.0051
  1.0389   1.0390   1.0546   1.0546   1.0697   1.0697   1.0882   1.1333
  1.1511   1.1744   1.1877   1.1877   1.1954   1.1954   1.2112   1.2270
  1.2270   1.2469   1.2469   1.2765   1.2813   1.2813   1.3042   1.3042
  1.3288   1.3486   1.3486   1.3812   1.4439   1.4559   1.4559   1.5015
  1.5353   1.5353   1.5402   1.5402   1.5497   1.5771   1.5771   1.5832
  1.6446   1.6446   1.6578   1.6998   1.6998   1.7005   1.7017   1.7291
  1.7400   1.7400   1.7533   1.7816   1.7816   1.8174   1.8174   1.8321
  1.8959   1.9512   1.9512   2.0083   2.0682   2.0682   2.0841   2.0841
  2.1115   2.1679   2.1815   2.2152   2.2152   2.3175   2.3583   2.3583
  2.4375   2.4375   2.5224   2.6123   2.6123   2.6341   2.6341   2.7240
  2.7438   2.7438   2.7489   2.8018   2.9013   2.9013   2.9709   2.9709
  3.0331   3.0618   3.0619   3.0715   3.1224   3.1956   3.1956   3.2639
  3.2686   3.3502   3.3502   3.3557   3.4364   3.4364   3.5131   3.5131
  3.5136   3.5454   3.5454   3.6071   3.6071   3.6208   3.6269   3.6818
  3.6919   3.6919   3.6953   3.7522   3.7887   3.7887   3.8589   3.8590
  3.8707   3.8896   3.8896   3.9408   4.0323   4.0323   4.0791   4.1740
  4.1740   4.1901   4.1901   4.2596   4.3438   4.3438   4.3732   4.4135
  4.4135   4.4224   4.5567   4.6036   4.6036   4.6972   4.6972   4.7523
  4.9136   4.9136   5.0190   5.1184   5.1794   5.1794   5.2130   5.2480
  5.2666   5.2666   5.3550   5.3550   5.4541   5.4541   5.4739   5.5628
  5.6499   5.6500   5.6939   5.8022   5.8022   5.8629   5.8629   5.8757
  6.0294   6.1563   6.1563   6.1608   6.2043   6.2043   6.2996   6.2996
  6.4989   6.5150   6.7141   6.7908   6.7908   7.0689   7.0689   7.1494
  7.2454   7.3697   7.3698   7.5945   7.5945   7.7152   7.7152   7.7560
  8.0001   8.0595   8.0595   8.1431   8.1432   8.1439   8.5682   8.5682
  8.5926   8.6599   8.7077   8.7077   8.8981   8.8981   8.9860   9.0392
  9.0392   9.0459   9.1037   9.1037   9.1282   9.2557   9.3005   9.3185
  9.3185   9.4339   9.4339   9.6408   9.6408   9.6500   9.7735   9.7735
  9.8805   9.8805   9.9224  10.0733  10.0733  10.4484  11.1315  11.2346
 11.2347  11.2852  11.3099  11.3099  11.4093  11.4909  11.6299  11.6299
 11.8230  11.8230  12.0933  12.2122  12.2122  12.2250  12.2250  12.3377
 12.3732  12.3905  12.4142  12.4142  12.4664  12.5213  12.5213  12.5591
 12.6204  12.6205  12.6705  12.6705  12.7180  12.7180  12.7499  12.8571
 12.9060  12.9151  12.9151  12.9453  13.0786  13.1000  13.1024  13.1024
 13.2771  13.3191  13.3191  13.3769  13.3769  13.5782  13.5783  13.9250
 14.0621  14.0621  14.8264  16.3766  16.3766  16.7614  16.7821  16.7821
 16.7855  16.7855  16.7857  16.7878  16.8247  16.8247  16.8933  16.8933
 16.9098  17.0177  17.0995  17.0996  17.1996  17.2104  17.2104  17.2140
 17.2141  17.2259  17.3208  17.3209  17.3961  17.4306  17.7327  17.8099
 17.8247  17.8248  18.0153  18.0153  18.2307  18.2307  18.5551  18.7341
 18.7341  18.8742  19.2912  19.2912  23.2668  23.2668  23.4896  23.5142
 23.5142  23.5287  23.5748  23.5749  23.6258  23.6258  23.9929  24.2878
 24.2878  24.3461  30.2300  30.6417  32.3155  32.3155  33.6489  40.1833
 40.1834  40.1966  59.4897  59.4897  60.1255  60.2243  60.2244  66.9706
 66.9706  67.2006  67.2006  67.7976  91.1315  91.1647  91.1647  91.1692
 91.1881  91.1881  91.6867  91.6884  91.6884 143.7226
 --------------------------------------------------------------

          Ground-State Mulliken Net Atomic Charges

     Atom                 Charge (a.u.)    Spin (a.u.)
  --------------------------------------------------------
      1 P                     0.101636       0.000000
      2 H                     0.090105       0.000000
      3 H                     0.090061       0.000000
      4 H                     0.090061       0.000000
      5 O                    -0.371863       0.000000
  --------------------------------------------------------
  Sum of atomic charges =    -0.000000
  Sum of spin   charges =     0.000000

 -----------------------------------------------------------------
                    Cartesian Multipole Moments
 -----------------------------------------------------------------
    Charge (ESU x 10^10)
                -0.0000
    Dipole Moment (Debye)
         X      -0.0001      Y      -0.0000      Z      -3.6885
       Tot       3.6885
    Quadrupole Moments (Debye-Ang)
        XX     -18.8300     XY      -0.0000     YY     -18.8300
        XZ       0.0001     YZ      -0.0000     ZZ     -22.5409
    Octopole Moments (Debye-Ang^2)
       XXX      -0.2104    XXY      -0.0000    XYY       0.2099
       YYY      -0.0000    XXZ      -0.0001    XYZ       0.0000
       YYZ      -0.0000    XZZ      -0.0002    YZZ      -0.0000
       ZZZ      -2.3124
    Hexadecapole Moments (Debye-Ang^3)
      XXXX     -32.6237   XXXY      -0.0000   XXYY     -10.8747
      XYYY       0.0000   YYYY     -32.6247   XXXZ       0.4217
      XXYZ      -0.0000   XYYZ      -0.4211   YYYZ      -0.0000
      XXZZ     -21.3287   XYZZ      -0.0000   YYZZ     -21.3288
      XZZZ       0.0005   YZZZ      -0.0000   ZZZZ     -94.5259
 -----------------------------------------------------------------
Archival summary:
1\1\n0098.mhg0\SP\ProcedureUnspecified\BasisUnspecified\113\yhljason\WedAug1200:38:062020WedAug1200:38:062020\0\\#,ProcedureUnspecified,BasisUnspecified,\\0,1\P\H,1,1.40747\H,1,1.40752,2,100.786\H,1,1.40752,2,100.786,3,-103.31,0\O,1,1.4878,2,117.174,3,128.345,0\\\@

 Total job time:  31911.66s(wall), 251603.96s(cpu) 
 Wed Aug 12 00:38:06 2020

        *************************************************************
        *                                                           *
        *  Thank you very much for using Q-Chem.  Have a nice day.  *
        *                                                           *
        *************************************************************


