                  Welcome to Q-Chem
     A Quantum Leap Into The Future Of Chemistry


 Q-Chem 5.3 (devel), Q-Chem, Inc., Pleasanton, CA (2020)

 Yihan Shao,  Zhengting Gan,  E. Epifanovsky,  A. T. B. Gilbert,  M. Wormit,  
 J. Kussmann,  A. W. Lange,  A. Behn,  Jia Deng,  Xintian Feng,  D. Ghosh,  
 M. Goldey,  P. R. Horn,  L. D. Jacobson,  I. Kaliman,  T. Kus,  A. Landau,  
 Jie Liu,  E. I. Proynov,  R. M. Richard,  R. P. Steele,  E. J. Sundstrom,  
 H. L. Woodcock III,  P. M. Zimmerman,  D. Zuev,  B. Alam,  B. Albrecht,  
 E. Alguire,  S. A. Baeppler,  D. Barton,  Z. Benda,  Y. A. Bernard,  
 E. J. Berquist,  K. B. Bravaya,  H. Burton,  K. Carter-Fenk,  D. Casanova,  
 Chun-Min Chang,  Yunqing Chen,  A. Chien,  K. D. Closser,  M. P. Coons,  
 S. Coriani,  S. Dasgupta,  A. L. Dempwolff,  M. Diedenhofen,  Hainam Do,  
 R. G. Edgar,  Po-Tung Fang,  S. Faraji,  S. Fatehi,  Qingguo Feng,  
 J. Fosso-Tande,  J. Gayvert,  Qinghui Ge,  A. Ghysels,  G. Gidofalvi,  
 J. Gomes,  J. Gonthier,  A. Gunina,  D. Hait,  M. W. D. Hanson-Heine,  
 P. H. P. Harbach,  A. W. Hauser,  M. F. Herbst,  J. E. Herr,  
 E. G. Hohenstein,  Z. C. Holden,  Kerwin Hui,  B. C. Huynh,  T.-C. Jagau,  
 Hyunjun Ji,  B. Kaduk,  K. Khistyaev,  Jaehoon Kim,  P. Klunzinger,  K. Koh,  
 D. Kosenkov,  L. Koulias,  T. Kowalczyk,  C. M. Krauter,  A. Kunitsa,  
 Ka Un Lao,  A. Laurent,  K. V. Lawler,  Joonho Lee,  D. Lefrancois,  
 S. Lehtola,  D. S. Levine,  Yi-Pei Li,  You-Sheng Lin,  Fenglai Liu,  
 Kuan-Yu Liu,  E. Livshits,  M. Loipersberger,  A. Luenser,  P. Manohar,  
 E. Mansoor,  S. F. Manzer,  Shan-Ping Mao,  Yuezhi Mao,  N. Mardirossian,  
 A. V. Marenich,  T. Markovich,  L. A. Martinez-Martinez,  S. A. Maurer,  
 N. J. Mayhall,  S. C. McKenzie,  J.-M. Mewes,  P. Morgante,  A. F. Morrison,  
 J. W. Mullinax,  K. Nanda,  T. S. Nguyen-Beck,  R. Olivares-Amaya,  
 K. J. Oosterbaan,  J. A. Parkhill,  S. K. Paul,  F. Pavosevic,  Zheng Pei,  
 T. M. Perrine,  F. Plasser,  P. Pokhilko,  S. Prager,  A. Prociuk,  
 E. Ramos,  B. Rana,  D. R. Rehn,  F. Rob,  M. Scheurer,  M. Schneider,  
 N. Sergueev,  S. M. Sharada,  S. Sharma,  D. W. Small,  T. Stauch,  
 C. J. Stein,  T. Stein,  Yu-Chuan Su,  S. P. Veccham,  Zhen Tao,  
 A. J. W. Thom,  A. Tkatchenko,  T. Tsuchimochi,  N. M. Tubman,  L. Vogt,  
 M. L. Vidal,  O. Vydrov,  M. A. Watson,  J. Wenzel,  M. de Wergifosse,  
 T. A. Wesolowski,  A. White,  J. Witte,  A. Yamada,  Jun Yang,  K. Yao,  
 S. Yeganeh,  S. R. Yost,  Zhi-Qiang You,  A. Zech,  Igor Ying Zhang,  
 Xing Zhang,  Yan Zhao,  Ying Zhu,  B. R. Brooks,  G. K. L. Chan,  
 C. J. Cramer,  M. S. Gordon,  W. J. Hehre,  A. Klamt,  M. W. Schmidt,  
 C. D. Sherrill,  D. G. Truhlar,  A. Aspuru-Guzik,  R. Baer,  A. T. Bell,  
 N. A. Besley,  Jeng-Da Chai,  A. E. DePrince, III,  R. A. DiStasio Jr.,  
 A. Dreuw,  B. D. Dunietz,  T. R. Furlani,  Chao-Ping Hsu,  Yousung Jung,  
 Jing Kong,  D. S. Lambrecht,  WanZhen Liang,  C. Ochsenfeld,  
 V. A. Rassolov,  L. V. Slipchenko,  J. E. Subotnik,  T. Van Voorhis,  
 J. M. Herbert,  A. I. Krylov,  P. M. W. Gill,  M. Head-Gordon

 Contributors to earlier versions of Q-Chem not listed above: 
 R. D. Adamson,  B. Austin,  J. Baker,  G. J. O. Beran,  K. Brandhorst,  
 S. T. Brown,  E. F. C. Byrd,  A. K. Chakraborty,  C.-L. Cheng,  
 Siu Hung Chien,  D. M. Chipman,  D. L. Crittenden,  H. Dachsel,  
 R. J. Doerksen,  A. D. Dutoi,  L. Fusti-Molnar,  W. A. Goddard III,  
 A. Golubeva-Zadorozhnaya,  S. R. Gwaltney,  G. Hawkins,  A. Heyden,  
 S. Hirata,  G. Kedziora,  F. J. Keil,  C. Kelley,  Jihan Kim,  R. A. King,  
 R. Z. Khaliullin,  P. P. Korambath,  W. Kurlancheek,  A. M. Lee,  M. S. Lee,  
 S. V. Levchenko,  Ching Yeh Lin,  D. Liotard,  R. C. Lochan,  I. Lotan,  
 P. E. Maslen,  N. Nair,  D. P. O'Neill,  D. Neuhauser,  E. Neuscamman,  
 C. M. Oana,  R. Olson,  B. Peters,  R. Peverati,  P. A. Pieniazek,  
 Y. M. Rhee,  J. Ritchie,  M. A. Rohrdanz,  E. Rosta,  N. J. Russ,  
 H. F. Schaefer III,  N. E. Schultz,  N. Shenvi,  A. C. Simmonett,  A. Sodt,  
 D. Stuck,  K. S. Thanthiriwatte,  V. Vanovschi,  Tao Wang,  A. Warshel,  
 C. F. Williams,  Q. Wu,  X. Xu,  W. Zhang

 Please cite Q-Chem as follows:
 Y. Shao et al., Mol. Phys. 113, 184-215 (2015)
 DOI: 10.1080/00268976.2014.952696

 Q-Chem 5.3.0 for Intel X86 EM64T Linux

 Parts of Q-Chem use Armadillo 9.800.1 (Horizon Scraper).
 http://arma.sourceforge.net/

 Q-Chem begins on Tue Aug 11 12:26:39 2020  

n0052.mhg0
Host: 0

     Scratch files written to /local/scratch/users/yhljason/SH2_HFLYP_aug-pc-4.inp20200811015524//
Processing $rem in /clusterfs/mhg/diptarka/qchem_transmom//config/preferences:
Processing $rem in /global/home/users/yhljason/.qchemrc:

Checking the input file for inconsistencies... 	...done.

--------------------------------------------------------------
User input:
--------------------------------------------------------------
$molecule
0 1
S1      0.0000  0.0000  0.1030
H2      0.0000  0.9616  -0.8239
H3      0.0000  -0.9616 -0.8239
$end

$rem
jobtype sp
method HFLYP
xc_grid 000099000590
basis aug-pc-4
max_scf_cycles 200
thresh 14
scf_convergence 8
scf_algorithm gdm
symmetry false
sym_ignore true
unrestricted true
gen_scfman true
internal_stability_iter 15
internal_stability_davidson_iter 200
mem_total 64000
mem_static 1500
n_frozen_core 0
$end


--------------------------------------------------------------
 ----------------------------------------------------------------
             Standard Nuclear Orientation (Angstroms)
    I     Atom           X                Y                Z
 ----------------------------------------------------------------
    1      S       0.0000000000     0.0000000000     0.1030000000
    2      H       0.0000000000     0.9616000000    -0.8239000000
    3      H       0.0000000000    -0.9616000000    -0.8239000000
 ----------------------------------------------------------------
 Nuclear Repulsion Energy =          12.95388647 hartrees
 There are        9 alpha and        9 beta electrons
 Requested basis set is aug-pc-4
 There are 79 shells and 317 basis functions

 Total QAlloc Memory Limit  64000 MB
 Mega-Array Size      1467 MB
 MEM_STATIC part      1500 MB

                       Distance Matrix (Angstroms)
             S (  1)   H (  2)
   H (  2)  1.335597
   H (  3)  1.335597  1.923200

 A cutoff of  1.0D-14 yielded   3141 shell pairs
 There are     51085 function pairs (     91882 Cartesian)
 Smallest overlap matrix eigenvalue = 4.64E-06

 Scale SEOQF with 1.000000e-01/1.000000e-01/1.000000e-01

 Standard Electronic Orientation quadrupole field applied
 Guess from superposition of atomic densities
 Warning:  Energy on first SCF cycle will be non-variational
 SAD guess density has 18.000000 electrons

 -----------------------------------------------------------------------
  General SCF calculation program by
  Eric Jon Sundstrom, Paul Horn, Yuezhi Mao, Dmitri Zuev, Alec White,
  David Stuck, Shaama M.S., Shane Yost, Joonho Lee, David Small,
  Daniel Levine, Susi Lehtola, Hugh Burton, Evgeny Epifanovsky,
  Bang C. Huynh
 -----------------------------------------------------------------------
 Exchange:     1.0000 Hartree-Fock
 Correlation:  1.0000 LYP
 Using Euler-Maclaurin-Lebedev (99,590) quadrature formula
Running Object-Oriented UKS (UHF)
performing a single roothaan step with Fock from read density so that orbitals are available to all algorithms
energy of the guess density (C=0) -399.339965700304
We will preform up to 15 macro iterations over saddle points until a stable solution is found
Energy prior to optimization (guess energy) = -399.398448579827
Begin Timing: Total SCF Calculation
Begin Timing: SCF Single Stationary Point Calculation
begin iterations for algorithm: GDM          
the SCF tolerance is set to 1.00e-08
    1    -399.3984485798      5.44e-02     00000  Normal BFGS step
    2    -399.4146670988      1.13e-02     00000  Normal BFGS step
    3    -399.4167019973      3.63e-03     00000  Normal BFGS step
    4    -399.4168749605      5.92e-04     00000  Normal BFGS step
    5    -399.4168808279      1.59e-04     00000  Normal BFGS step
    6    -399.4168812338      4.13e-05     00000  Normal BFGS step
    7    -399.4168812569      9.91e-06     00000  Normal BFGS step
    8    -399.4168812589      2.36e-06     00000  Normal BFGS step
    9    -399.4168812590      4.27e-07     00000  Normal BFGS step
   10    -399.4168812590      1.27e-07     00000  Normal BFGS step
   11    -399.4168812590      3.67e-08     00000  Normal BFGS step
   12    -399.4168812590      5.93e-09     00000 Convergence criterion met
Timing for Single Stationary Point: 705.00s (wall), 5505.41s (cpu)
Begin Timing: Stability
===================================================
Beginning Test for Internal Stability
===================================================
generating davidson guess vectors based on koopmans excitations
 Warning: Hessian-vector products not implemented
 Finite difference Hessian-vector products will be used.
computing hessian-vector products by finite difference
    1      7.66e-01     00000 Davidson Iteration
computing hessian-vector products by finite difference
    2      1.01e+00     00000 Davidson Iteration
computing hessian-vector products by finite difference
    3      2.21e-01     00000 Davidson Iteration
computing hessian-vector products by finite difference
    4      5.39e-02     00000 Davidson Iteration
computing hessian-vector products by finite difference
    5      3.29e-02     00000 Davidson Iteration
computing hessian-vector products by finite difference
    6      1.11e-02     00000 Davidson Iteration
computing hessian-vector products by finite difference
    7      2.70e-03     00000 Davidson Iteration
computing hessian-vector products by finite difference
    8      9.15e-04     00000 Davidson Iteration
computing hessian-vector products by finite difference
    9      8.39e-04     00000 Davidson Iteration
computing hessian-vector products by finite difference
   10      1.85e-03     00000 Davidson Iteration
computing hessian-vector products by finite difference
   11      4.62e-04     00000 Davidson Iteration
computing hessian-vector products by finite difference
   12      1.32e-04     00000 Davidson Iteration
computing hessian-vector products by finite difference
   13      5.81e-05     00000 Davidson Iteration
computing hessian-vector products by finite difference
   14      1.65e-03     00000 Davidson Iteration
computing hessian-vector products by finite difference
   15      1.70e-04     00000 Davidson Iteration
computing hessian-vector products by finite difference
   16      1.96e-04     00000 Davidson Iteration
computing hessian-vector products by finite difference
   17      1.66e-03     00000 Davidson Iteration
computing hessian-vector products by finite difference
   18      1.04e-04     00000 Davidson Iteration
computing hessian-vector products by finite difference
   19      8.11e-05     00000 Davidson Iteration
computing hessian-vector products by finite difference
   20      1.08e-03     00000 Davidson Iteration
computing hessian-vector products by finite difference
   21      4.06e-04     00000 Davidson Iteration
computing hessian-vector products by finite difference
   22      2.27e-04     00000 Davidson Iteration
computing hessian-vector products by finite difference
   23      6.92e-05     00000 Davidson Converged
converged_eigenvalues
   0.4019
   0.5180
   0.3542
Threshold for negative eigenvalues: -1.0e-05
solution was a local minimum (stable)
===================================================
End Test for Internal Stability
===================================================
Timing for Internal Stability: 6753.00s (wall), 52612.80s (cpu)
Our SCF solution is stable!
Timing for Total SCF: 7458.00s (wall), 58118.29s (cpu)
 Total energy in the final basis set =     -399.4168812590
<S^2> =         -0.000000000
    ==================================================
              The end of Object-Oriented SCFman       
    ==================================================

 --------------------------------------------------------------

                    Orbital Energies (a.u.)
 --------------------------------------------------------------

 Alpha MOs
 -- Occupied --
-91.9516  -8.9927  -6.6751  -6.6746  -6.6740  -1.0126  -0.6192  -0.5312
 -0.4141
 -- Virtual --
  0.0141   0.0288   0.0359   0.0392   0.0495   0.0759   0.0935   0.0949
  0.0958   0.1064   0.1099   0.1178   0.1340   0.1444   0.1518   0.1655
  0.1669   0.1715   0.1800   0.1861   0.1884   0.2122   0.2132   0.2246
  0.2351   0.2489   0.2519   0.2582   0.2723   0.2734   0.2828   0.2876
  0.3055   0.3164   0.3181   0.3246   0.3296   0.3567   0.3569   0.3652
  0.3777   0.3830   0.3891   0.3932   0.3956   0.4173   0.4202   0.4261
  0.4275   0.4475   0.4673   0.4773   0.4792   0.4827   0.4910   0.4965
  0.5119   0.5243   0.5317   0.5441   0.5567   0.5568   0.5758   0.5803
  0.5826   0.5929   0.6021   0.6140   0.6233   0.6247   0.6501   0.6534
  0.6600   0.6793   0.6794   0.6993   0.7019   0.7074   0.7083   0.7153
  0.7388   0.7419   0.7504   0.7504   0.7529   0.7570   0.7649   0.7761
  0.7765   0.7875   0.7970   0.8113   0.8167   0.8275   0.8339   0.8379
  0.8412   0.8589   0.8615   0.8802   0.8889   0.8913   0.9026   0.9109
  0.9301   0.9321   0.9322   0.9615   0.9811   1.0668   1.1427   1.1434
  1.2173   1.2238   1.2291   1.2577   1.3537   1.4102   1.4281   1.4949
  1.5069   1.5252   1.5271   1.5360   1.5367   1.5693   1.5878   1.6370
  1.6382   1.6739   1.6784   1.6865   1.7163   1.7271   1.7309   1.7726
  1.9674   1.9742   1.9960   2.0270   2.0365   2.0780   2.5614   2.6025
  2.6117   2.6203   2.6339   2.6579   2.7061   2.8545   2.9489   2.9868
  3.0797   3.0909   3.1082   3.1539   3.3009   3.3385   3.3472   3.3853
  3.5205   3.5686   3.5751   3.6163   3.6383   3.6419   3.6639   3.6657
  3.6863   3.7073   3.7276   3.7320   3.7682   3.8206   3.8468   3.8918
  3.9307   4.0183   4.0429   4.0681   4.0951   4.1760   4.2340   4.2693
  4.3118   4.3451   4.3593   4.4901   4.5158   4.5489   4.7837   4.8397
  5.0634   5.4157   5.5031   5.5314   5.5900   5.8096   5.8102   5.8532
  5.8752   5.9065   6.1027   6.1365   6.2201   6.2743   6.3130   6.5017
  6.5239   6.6126   6.6875   6.8870   7.1041   7.1054   7.2540   7.7372
  8.1523   8.7349   8.7368   8.7674   8.7786   8.8428   8.8636   8.9139
  9.0037   9.0633   9.1075   9.1421   9.1604   9.2175   9.2511   9.2867
  9.3103   9.3335   9.5886   9.5969   9.6142   9.6708   9.7105   9.9831
 10.3923  10.4873  12.1499  12.3668  12.3807  12.6356  12.6598  12.6611
 12.7538  12.7567  12.7611  12.7796  12.8633  12.9263  12.9517  12.9874
 12.9976  12.9996  13.2303  13.4857  13.5010  13.5202  13.8378  14.4178
 14.7044  17.1306  17.1353  17.1377  17.1393  17.1446  17.2092  17.2457
 17.2692  17.5027  17.5216  17.5883  17.5939  17.6925  17.8008  17.8014
 18.1022  18.2812  18.5819  18.8635  18.8642  19.1337  19.4599  20.6724
 23.8085  23.8386  23.8690  23.8922  24.6759  24.7609  32.9642  40.6034
 40.7953  64.4040  64.4134  64.5047  64.7219  65.3741  91.6216  91.6415
 91.6700  91.6750  92.2053  92.3709

 Beta MOs
 -- Occupied --
-91.9516  -8.9927  -6.6751  -6.6746  -6.6740  -1.0126  -0.6192  -0.5312
 -0.4141
 -- Virtual --
  0.0141   0.0288   0.0359   0.0392   0.0495   0.0759   0.0935   0.0949
  0.0958   0.1064   0.1099   0.1178   0.1340   0.1444   0.1518   0.1655
  0.1669   0.1715   0.1800   0.1861   0.1884   0.2122   0.2132   0.2246
  0.2351   0.2489   0.2519   0.2582   0.2723   0.2734   0.2828   0.2876
  0.3055   0.3164   0.3181   0.3246   0.3296   0.3567   0.3569   0.3652
  0.3777   0.3830   0.3891   0.3932   0.3956   0.4173   0.4202   0.4261
  0.4275   0.4475   0.4673   0.4773   0.4792   0.4827   0.4910   0.4965
  0.5119   0.5243   0.5317   0.5441   0.5567   0.5568   0.5758   0.5803
  0.5826   0.5929   0.6021   0.6140   0.6233   0.6247   0.6501   0.6534
  0.6600   0.6793   0.6794   0.6993   0.7019   0.7074   0.7083   0.7153
  0.7388   0.7419   0.7504   0.7504   0.7529   0.7570   0.7649   0.7761
  0.7765   0.7875   0.7970   0.8113   0.8167   0.8275   0.8339   0.8379
  0.8412   0.8589   0.8615   0.8802   0.8889   0.8913   0.9026   0.9109
  0.9301   0.9321   0.9322   0.9615   0.9811   1.0668   1.1427   1.1434
  1.2173   1.2238   1.2291   1.2577   1.3537   1.4102   1.4281   1.4949
  1.5069   1.5252   1.5271   1.5360   1.5367   1.5693   1.5878   1.6370
  1.6382   1.6739   1.6784   1.6865   1.7163   1.7271   1.7309   1.7726
  1.9674   1.9742   1.9960   2.0270   2.0365   2.0780   2.5614   2.6025
  2.6117   2.6203   2.6339   2.6579   2.7061   2.8545   2.9489   2.9868
  3.0797   3.0909   3.1082   3.1539   3.3009   3.3385   3.3472   3.3853
  3.5205   3.5686   3.5751   3.6163   3.6383   3.6419   3.6639   3.6657
  3.6863   3.7073   3.7276   3.7320   3.7682   3.8206   3.8468   3.8918
  3.9307   4.0183   4.0429   4.0681   4.0951   4.1760   4.2340   4.2693
  4.3118   4.3451   4.3593   4.4901   4.5158   4.5489   4.7837   4.8397
  5.0634   5.4157   5.5031   5.5314   5.5900   5.8096   5.8102   5.8532
  5.8752   5.9065   6.1027   6.1365   6.2201   6.2743   6.3130   6.5017
  6.5239   6.6126   6.6875   6.8870   7.1041   7.1054   7.2540   7.7372
  8.1523   8.7349   8.7368   8.7674   8.7786   8.8428   8.8636   8.9139
  9.0037   9.0633   9.1075   9.1421   9.1604   9.2175   9.2511   9.2867
  9.3103   9.3335   9.5886   9.5969   9.6142   9.6708   9.7105   9.9831
 10.3923  10.4873  12.1499  12.3668  12.3807  12.6356  12.6598  12.6611
 12.7538  12.7567  12.7611  12.7796  12.8633  12.9263  12.9517  12.9874
 12.9976  12.9996  13.2303  13.4857  13.5010  13.5202  13.8378  14.4178
 14.7044  17.1306  17.1353  17.1377  17.1393  17.1446  17.2092  17.2457
 17.2692  17.5027  17.5216  17.5883  17.5939  17.6925  17.8008  17.8014
 18.1022  18.2812  18.5819  18.8635  18.8642  19.1337  19.4599  20.6724
 23.8085  23.8386  23.8690  23.8922  24.6759  24.7609  32.9642  40.6034
 40.7953  64.4040  64.4134  64.5047  64.7219  65.3741  91.6216  91.6415
 91.6700  91.6750  92.2053  92.3709
 --------------------------------------------------------------

          Ground-State Mulliken Net Atomic Charges

     Atom                 Charge (a.u.)    Spin (a.u.)
  --------------------------------------------------------
      1 S                    -1.070825      -0.000000
      2 H                     0.535412       0.000000
      3 H                     0.535412      -0.000000
  --------------------------------------------------------
  Sum of atomic charges =    -0.000000
  Sum of spin   charges =    -0.000000

 -----------------------------------------------------------------
                    Cartesian Multipole Moments
 -----------------------------------------------------------------
    Charge (ESU x 10^10)
                 0.0000
    Dipole Moment (Debye)
         X      -0.0000      Y       0.0000      Z      -1.0786
       Tot       1.0786
    Quadrupole Moments (Debye-Ang)
        XX     -16.6015     XY       0.0000     YY     -12.1686
        XZ      -0.0000     YZ      -0.0000     ZZ     -13.4842
    Octopole Moments (Debye-Ang^2)
       XXX      -0.0000    XXY      -0.0000    XYY      -0.0000
       YYY      -0.0000    XXZ      -0.2787    XYZ      -0.0000
       YYZ      -1.2158    XZZ       0.0000    YZZ       0.0000
       ZZZ      -1.3614
    Hexadecapole Moments (Debye-Ang^3)
      XXXX     -24.1423   XXXY      -0.0000   XXYY      -8.1566
      XYYY       0.0000   YYYY     -21.6472   XXXZ      -0.0000
      XXYZ       0.0000   XYYZ      -0.0000   YYYZ       0.0000
      XXZZ      -8.3366   XYZZ       0.0000   YYZZ      -6.2746
      XZZZ      -0.0000   YZZZ       0.0000   ZZZZ     -23.8627
 -----------------------------------------------------------------
Archival summary:
1\1\n0052.mhg0\SP\ProcedureUnspecified\BasisUnspecified\12\yhljason\TueAug1114:32:582020TueAug1114:32:582020\0\\#,ProcedureUnspecified,BasisUnspecified,\\0,1\S\H,1,1.3356\H,1,1.3356,2,92.1053\\HF=-399.416881\\@

 Total job time:  7578.73s(wall), 59051.67s(cpu) 
 Tue Aug 11 14:32:58 2020

        *************************************************************
        *                                                           *
        *  Thank you very much for using Q-Chem.  Have a nice day.  *
        *                                                           *
        *************************************************************


