Q-Chem Developer Version!
                  Welcome to Q-Chem
     A Quantum Leap Into The Future Of Chemistry


 Q-Chem 5.1, Q-Chem, Inc., Pleasanton, CA (2018)

 Yihan Shao,  Zhengting Gan,  E. Epifanovsky,  A. T. B. Gilbert,  M. Wormit,  
 J. Kussmann,  A. W. Lange,  A. Behn,  Jia Deng,  Xintian Feng,  D. Ghosh,  
 M. Goldey,  P. R. Horn,  L. D. Jacobson,  I. Kaliman,  T. Kus,  A. Landau,  
 Jie Liu,  E. I. Proynov,  R. M. Richard,  R. P. Steele,  E. J. Sundstrom,  
 H. L. Woodcock III,  P. M. Zimmerman,  D. Zuev,  B. Albrecht,  E. Alguire,  
 S. A. Baeppler,  D. Barton,  Z. Benda,  Y. A. Bernard,  E. J. Berquist,  
 K. B. Bravaya,  H. Burton,  D. Casanova,  Chun-Min Chang,  Yunqing Chen,  
 A. Chien,  K. D. Closser,  M. P. Coons,  S. Coriani,  S. Dasgupta,  
 A. L. Dempwolff,  M. Diedenhofen,  Hainam Do,  R. G. Edgar,  Po-Tung Fang,  
 S. Faraji,  S. Fatehi,  Qingguo Feng,  K. D. Fenk,  J. Fosso-Tande,  
 Qinghui Ge,  A. Ghysels,  G. Gidofalvi,  J. Gomes,  J. Gonthier,  A. Gunina,  
 D. Hait,  M. W. D. Hanson-Heine,  P. H. P. Harbach,  A. W. Hauser,  
 J. E. Herr,  E. G. Hohenstein,  Z. C. Holden,  Kerwin Hui,  B. C. Huynh,  
 T.-C. Jagau,  Hyunjun Ji,  B. Kaduk,  K. Khistyaev,  Jaehoon Kim,  
 P. Klunzinger,  K. Koh,  D. Kosenkov,  L. Koulias,  T. Kowalczyk,  
 C. M. Krauter,  A. Kunitsa,  Ka Un Lao,  A. Laurent,  K. V. Lawler,  
 Joonho Lee,  D. Lefrancois,  S. Lehtola,  D. S. Levine,  Yi-Pei Li,  
 You-Sheng Lin,  Fenglai Liu,  E. Livshits,  A. Luenser,  P. Manohar,  
 E. Mansoor,  S. F. Manzer,  Shan-Ping Mao,  Yuezhi Mao,  N. Mardirossian,  
 A. V. Marenich,  T. Markovich,  L. A. Martinez-Martinez,  S. A. Maurer,  
 N. J. Mayhall,  S. C. McKenzie,  J.-M. Mewes,  A. F. Morrison,  
 J. W. Mullinax,  K. Nanda,  T. S. Nguyen-Beck,  R. Olivares-Amaya,  
 J. A. Parkhill,  T. M. Perrine,  F. Plasser,  P. Pokhilko,  S. Prager,  
 A. Prociuk,  E. Ramos,  D. R. Rehn,  F. Rob,  M. Schneider,  N. Sergueev,  
 S. M. Sharada,  S. Sharma,  D. W. Small,  T. Stauch,  T. Stein,  
 Yu-Chuan Su,  A. J. W. Thom,  A. Tkatchenko,  T. Tsuchimochi,  N. M. Tubman,  
 L. Vogt,  M. L. Vidal,  O. Vydrov,  M. A. Watson,  J. Wenzel,  
 M. de Wergifosse,  T. A. Wesolowski,  A. White,  J. Witte,  A. Yamada,  
 Jun Yang,  K. Yao,  S. Yeganeh,  S. R. Yost,  Zhi-Qiang You,  A. Zech,  
 Igor Ying Zhang,  Xing Zhang,  Yan Zhao,  Ying Zhu,  B. R. Brooks,  
 G. K. L. Chan,  C. J. Cramer,  M. S. Gordon,  W. J. Hehre,  A. Klamt,  
 M. W. Schmidt,  C. D. Sherrill,  D. G. Truhlar,  A. Aspuru-Guzik,  R. Baer,  
 A. T. Bell,  N. A. Besley,  Jeng-Da Chai,  A. E. DePrince, III,  
 R. A. DiStasio Jr.,  A. Dreuw,  B. D. Dunietz,  T. R. Furlani,  
 Chao-Ping Hsu,  Yousung Jung,  Jing Kong,  D. S. Lambrecht,  WanZhen Liang,  
 C. Ochsenfeld,  V. A. Rassolov,  L. V. Slipchenko,  J. E. Subotnik,  
 T. Van Voorhis,  J. M. Herbert,  A. I. Krylov,  P. M. W. Gill,  M. Head-Gordon

 Contributors to earlier versions of Q-Chem not listed above: 
 R. D. Adamson,  B. Austin,  J. Baker,  G. J. O. Beran,  K. Brandhorst,  
 S. T. Brown,  E. F. C. Byrd,  A. K. Chakraborty,  C.-L. Cheng,  
 Siu Hung Chien,  D. M. Chipman,  D. L. Crittenden,  H. Dachsel,  
 R. J. Doerksen,  A. D. Dutoi,  L. Fusti-Molnar,  W. A. Goddard III,  
 A. Golubeva-Zadorozhnaya,  S. R. Gwaltney,  G. Hawkins,  A. Heyden,  
 S. Hirata,  G. Kedziora,  F. J. Keil,  C. Kelley,  Jihan Kim,  R. A. King,  
 R. Z. Khaliullin,  P. P. Korambath,  W. Kurlancheek,  A. M. Lee,  M. S. Lee,  
 S. V. Levchenko,  Ching Yeh Lin,  D. Liotard,  R. C. Lochan,  I. Lotan,  
 P. E. Maslen,  N. Nair,  D. P. O'Neill,  D. Neuhauser,  E. Neuscamman,  
 C. M. Oana,  R. Olson,  B. Peters,  R. Peverati,  P. A. Pieniazek,  
 Y. M. Rhee,  J. Ritchie,  M. A. Rohrdanz,  E. Rosta,  N. J. Russ,  
 H. F. Schaefer III,  N. E. Schultz,  N. Shenvi,  A. C. Simmonett,  A. Sodt,  
 D. Stuck,  K. S. Thanthiriwatte,  V. Vanovschi,  Tao Wang,  A. Warshel,  
 C. F. Williams,  Q. Wu,  X. Xu,  W. Zhang

 Please cite Q-Chem as follows:
 Y. Shao et al., Mol. Phys. 113, 184-215 (2015)
 DOI: 10.1080/00268976.2014.952696

 Q-Chem 5.1.1 for Intel X86 EM64T Linux

 Parts of Q-Chem use Armadillo 8.300.2 (Tropical Shenanigans).
 http://arma.sourceforge.net/

 Q-Chem begins on Sat Oct  3 13:50:22 2020  

Host: n0092.mhg0
0

     Scratch files written to /local/scratch/users/yhljason/CH2BH_PTPSS-D3_aug-cc-pcVTZ.inp20201003135019//
Input Ideriv = 0
Curr. Ideriv = -1
Max.  Ideriv = 0
Analytic post-HF gradients are not available with non-HF exchange
Input Ideriv = 0
Curr. Ideriv = 0
Max.  Ideriv = 0

Checking the input file for inconsistencies... 	...done.

--------------------------------------------------------------
User input:
--------------------------------------------------------------
$molecule
0 1
        C         0.0000000000    0.0000000000    0.5940000000
        B         0.0000000000    0.0000000000   -0.7886000000
        H         0.0000000000    0.9173000000    1.1687000000
        H         0.0000000000   -0.9173000000    1.1687000000
        H         0.0000000000    0.0000000000   -1.9586000000
$end

$rem
jobtype sp
method PTPSS-D3
xc_grid 000099000590
basis aug-cc-pcVTZ
max_scf_cycles 200
thresh 14
scf_convergence 8
scf_algorithm gdm
symmetry false
sym_ignore true
unrestricted false
gen_scfman true
internal_stability_iter 15
internal_stability_davidson_iter 200
mem_total 128000
cc_memory 96000
cc_backend xm
mem_static 1500
n_frozen_core 0
$end



--------------------------------------------------------------
 Adding empirical dispersion correction 
 ----------------------------------------------------------------
 Doing -D3(0) with
 s6  =   0.75000
 s8  =   0.87900
 rs6 =   1.54100
 rs8 =   1.00000
 -D3 energy without 3body term =     -0.0002713263 hartrees
 ----------------------------------------------------------------
             Standard Nuclear Orientation (Angstroms)
    I     Atom           X                Y                Z
 ----------------------------------------------------------------
    1      C       0.0000000000     0.0000000000     0.5940000000
    2      B       0.0000000000     0.0000000000    -0.7886000000
    3      H       0.0000000000     0.9173000000     1.1687000000
    4      H       0.0000000000    -0.9173000000     1.1687000000
    5      H       0.0000000000     0.0000000000    -1.9586000000
 ----------------------------------------------------------------
 Nuclear Repulsion Energy =    23.9149089377 hartrees
 There are        7 alpha and        7 beta electrons
 Requested basis set is aug-cc-pCVTZ
 There are 65 shells and 187 basis functions

 Total QAlloc Memory Limit 128000 MB
 Mega-Array Size      1467 MB
 MEM_STATIC part      1500 MB

                       Distance Matrix (Angstroms)
             C (  1)   B (  2)   H (  3)   H (  4)
   B (  2)  1.382600
   H (  3)  1.082460  2.161588
   H (  4)  1.082460  2.161588  1.834600
   H (  5)  2.552600  1.170000  3.259056  3.259056
 
 A cutoff of  1.0D-14 yielded   2137 shell pairs
 There are     17781 function pairs (     23142 Cartesian)
 
 -------------------------------------------------------
 OpenMP Integral Computing Module                       
 Release: version 1.0, May 2013, Q-Chem Inc. Pittsburgh 
 -------------------------------------------------------
 Integral Job Info:
 Integral job number is                      11
 Integral operator is                         1
 short-range coefficients                     0
 long-range coefficients              100000000
 Omega coefficients                           0
 if combine SR and LR in K                    0
 Integral screening is                        0
 Integral computing path is                   2
 max size of driver memory is            800000
 size of driver memory is                776718
 size of scratch memory is              6691272
 max col of scratch BK array              10000
 max len of scratch array in speh3          662
 max len of scratch index in speh4           32
 max int batch size is                      520
 min int batch size is                       52
 fixed nKL is                                52
 max L of basis functions is                  3
 order of int derivative is                   0
 number of shells is                         65
 number of basis is                         213
 number of cartesian basis is               213
 number of contracted shell pairs          2137
 number of primitive shell pairs           5026
 maxK2 (contraction) of shell pair           64
 max number of K2 of shell pair               1
 max number of CS2 of shell pair            369
 max number of PS2 of shell pair            576
 mem total for path MDJ                  570992
 -------------------------------------------------------
 Smallest overlap matrix eigenvalue = 4.46E-05

 Scale SEOQF with 1.000000e-01/1.000000e-01/1.000000e-01

 Standard Electronic Orientation quadrupole field applied
 Nucleus-field energy     =    -0.0000000011 hartrees
 Guess from superposition of atomic densities
 Warning:  Energy on first SCF cycle will be non-variational
 SAD guess density has 14.000000 electrons

 -----------------------------------------------------------------------
  General SCF calculation program by
  Eric Jon Sundstrom, Paul Horn, Yuezhi Mao, Dmitri Zuev, Alec White,
  David Stuck, Shaama M.S., Shane Yost, Joonho Lee, David Small,
  Daniel Levine, Susi Lehtola, Hugh Burton, Evgeny Epifanovsky
 -----------------------------------------------------------------------
 Exchange:     0.5000 Hartree-Fock + 0.5000 PTPSS-D3
 Correlation:  0.6250 PTPSS-D3
 Using Euler-Maclaurin-Lebedev (99,590) quadrature formula
 Dispersion:   Grimme D3
Running Object-Oriented RKS (RHF)
We will preform up to 15 macro iterations over saddle points until a stable solution is found
Energy prior to optimization (guess energy) = -64.470210197770
Begin Timing: Total SCF Calculation
Begin Timing: SCF Single Stationary Point Calculation
begin iterations for algorithm: GDM          
the SCF tolerance is set to 1.00e-08
    1     -64.4702101978      1.21e-01     00000  Descent step
    2     -64.4814667912      1.96e-01     00000  Normal BFGS step
    3     -64.5393813994      1.62e-02     00000  Normal BFGS step
    4     -64.5400118788      6.28e-03     00000  Normal BFGS step
    5     -64.5402058720      9.30e-04     00000  Normal BFGS step
    6     -64.5402094498      1.81e-04     00000  Normal BFGS step
    7     -64.5402097214      1.18e-05     00000  Normal BFGS step
    8     -64.5402097228      1.49e-06     00000  Normal BFGS step
    9     -64.5402097229      1.80e-07     00000  Normal BFGS step
   10     -64.5402097229      3.65e-08     00000  Normal BFGS step
   11     -64.5402097229      2.11e-08     00000  Normal BFGS step
   12     -64.5402097229      7.42e-09     00000 Convergence criterion met
Timing for Single Stationary Point: 73.00s (wall), 585.07s (cpu)
Begin Timing: Stability
===================================================
Beginning Test for Internal Stability
===================================================
generating davidson guess vectors based on koopmans excitations
    1      7.72e-01     00000 Davidson Iteration
    2      3.64e-01     00000 Davidson Iteration
    3      2.12e-02     00000 Davidson Iteration
    4      2.08e-02     00000 Davidson Iteration
    5      2.75e-03     00000 Davidson Iteration
    6      4.26e-04     00000 Davidson Iteration
    7      1.58e-04     00000 Davidson Iteration
    8      2.32e-05     00000 Davidson Iteration
    9      4.75e-04     00000 Davidson Iteration
   10      1.48e-04     00000 Davidson Iteration
   11      3.73e-05     00000 Davidson Converged
converged_eigenvalues
   0.4954
   0.8765
Threshold for negative eigenvalues: -1.0e-05
solution was a local minimum (stable)
===================================================
End Test for Internal Stability
===================================================
Our SCF solution is stable!
Timing for Total SCF: 195.00s (wall), 1566.77s (cpu)
 Total energy in the final basis set =      -64.5402097229
    ==================================================
              The end of Object-Oriented SCFman       
    ==================================================
 
 Components of the MP2 correlation energy:
        aaaa  correlation energy =         0.0000000000 au
        abab  correlation energy =        -0.1312315695 au
        bbbb  correlation energy =         0.0000000000 au
        non-Brillouin singles    =        -0.0000000000 au

 Total  MP2   correlation energy =                    -0.13123157 au
        MP2         total energy =                   -64.67144129 au
 
 --------------------------------------------------------------
 
                    Orbital Energies (a.u.)
 --------------------------------------------------------------
 
 Alpha MOs
 -- Occupied --
-10.564  -7.109  -0.777  -0.546  -0.477  -0.459  -0.277
 -- Virtual --
 -0.010   0.017   0.030   0.034   0.034   0.065   0.067   0.068
  0.079   0.105   0.108   0.124   0.134   0.143   0.143   0.175
  0.186   0.213   0.220   0.249   0.252   0.274   0.276   0.277
  0.306   0.311   0.319   0.342   0.358   0.360   0.371   0.382
  0.384   0.397   0.420   0.454   0.455   0.527   0.564   0.592
  0.604   0.627   0.627   0.630   0.662   0.694   0.702   0.723
  0.759   0.766   0.772   0.772   0.795   0.815   0.830   0.851
  0.853   0.894   0.939   0.939   0.972   0.999   1.011   1.020
  1.022   1.059   1.080   1.105   1.156   1.170   1.187   1.248
  1.263   1.264   1.277   1.363   1.400   1.444   1.451   1.504
  1.541   1.546   1.625   1.629   1.629   1.630   1.650   1.717
  1.718   1.736   1.739   1.834   1.885   1.966   1.970   2.005
  2.074   2.126   2.148   2.178   2.221   2.282   2.485   2.489
  2.516   2.664   2.669   2.720   2.837   2.951   2.980   3.070
  3.081   3.093   3.158   3.383   3.434   3.481   3.594   3.599
  3.637   3.646   3.657   3.810   3.897   3.934   3.959   3.995
  4.049   4.067   4.091   4.279   4.297   4.410   4.462   4.494
  4.569   4.625   4.636   4.661   4.678   4.908   4.978   5.100
  5.145   5.189   5.197   5.356   5.513   5.675   5.945   6.002
  6.374   6.490  10.402  10.637  11.785  12.148  15.486  16.353
 16.425  17.277  36.723  36.730  36.802  36.836  37.006  41.029
 41.053  41.221  41.242  41.282  55.562  55.708  56.757  60.417
 80.638  81.280  81.304  86.696
 --------------------------------------------------------------
 
          Ground-State Mulliken Net Atomic Charges

     Atom                 Charge (a.u.)
  ----------------------------------------
      1 C                    -1.115538
      2 B                    -0.074320
      3 H                     0.558858
      4 H                     0.558858
      5 H                     0.072143
  ----------------------------------------
  Sum of atomic charges =     0.000000

 -----------------------------------------------------------------
                    Cartesian Multipole Moments
 -----------------------------------------------------------------
    Charge (ESU x 10^10)
                 0.0000
    Dipole Moment (Debye)
         X       0.0000      Y      -0.0000      Z      -0.7271
       Tot       0.7271
    Quadrupole Moments (Debye-Ang)
        XX     -16.3758     XY      -0.0000     YY     -11.7601
        XZ      -0.0000     YZ      -0.0000     ZZ     -11.5704
    Octopole Moments (Debye-Ang^2)
       XXX      -0.0000    XXY       0.0000    XYY       0.0000
       YYY      -0.0000    XXZ       0.4586    XYZ      -0.0000
       YYZ       1.4291    XZZ       0.0000    YZZ      -0.0000
       ZZZ       1.9000
    Hexadecapole Moments (Debye-Ang^3)
      XXXX     -25.7298   XXXY      -0.0000   XXYY      -8.1434
      XYYY      -0.0000   YYYY     -20.4327   XXXZ      -0.0000
      XXYZ      -0.0000   XYYZ      -0.0000   YYYZ      -0.0000
      XXZZ     -18.5989   XYZZ      -0.0000   YYZZ     -14.5139
      XZZZ      -0.0000   YZZZ      -0.0000   ZZZZ     -75.7602
 -----------------------------------------------------------------
Archival summary:
1\1\n0092.mhg0\SP\ProcedureUnspecified\BasisUnspecified\113\yhljason\SatOct313:54:222020SatOct313:54:222020\0\\#,ProcedureUnspecified,BasisUnspecified,\\0,1\C\H,1,1.08246\H,1,1.08246,2,115.865\B,1,1.3826,2,122.068,3,-180,0\H,4,1.17,1,180,2,0,0\\\@

 Total job time:  240.12s(wall), 1918.76s(cpu) 
 Sat Oct  3 13:54:22 2020

        *************************************************************
        *                                                           *
        *  Thank you very much for using Q-Chem.  Have a nice day.  *
        *                                                           *
        *************************************************************


 
User input: 2 of 83 of 8 
 
Q-Chem Developer Version!
                  Welcome to Q-Chem
     A Quantum Leap Into The Future Of Chemistry


 Q-Chem 5.1, Q-Chem, Inc., Pleasanton, CA (2018)

 Yihan Shao,  Zhengting Gan,  E. Epifanovsky,  A. T. B. Gilbert,  M. Wormit,  
 J. Kussmann,  A. W. Lange,  A. Behn,  Jia Deng,  Xintian Feng,  D. Ghosh,  
 M. Goldey,  P. R. Horn,  L. D. Jacobson,  I. Kaliman,  T. Kus,  A. Landau,  
 Jie Liu,  E. I. Proynov,  R. M. Richard,  R. P. Steele,  E. J. Sundstrom,  
 H. L. Woodcock III,  P. M. Zimmerman,  D. Zuev,  B. Albrecht,  E. Alguire,  
 S. A. Baeppler,  D. Barton,  Z. Benda,  Y. A. Bernard,  E. J. Berquist,  
 K. B. Bravaya,  H. Burton,  D. Casanova,  Chun-Min Chang,  Yunqing Chen,  
 A. Chien,  K. D. Closser,  M. P. Coons,  S. Coriani,  S. Dasgupta,  
 A. L. Dempwolff,  M. Diedenhofen,  Hainam Do,  R. G. Edgar,  Po-Tung Fang,  
 S. Faraji,  S. Fatehi,  Qingguo Feng,  K. D. Fenk,  J. Fosso-Tande,  
 Qinghui Ge,  A. Ghysels,  G. Gidofalvi,  J. Gomes,  J. Gonthier,  A. Gunina,  
 D. Hait,  M. W. D. Hanson-Heine,  P. H. P. Harbach,  A. W. Hauser,  
 J. E. Herr,  E. G. Hohenstein,  Z. C. Holden,  Kerwin Hui,  B. C. Huynh,  
 T.-C. Jagau,  Hyunjun Ji,  B. Kaduk,  K. Khistyaev,  Jaehoon Kim,  
 P. Klunzinger,  K. Koh,  D. Kosenkov,  L. Koulias,  T. Kowalczyk,  
 C. M. Krauter,  A. Kunitsa,  Ka Un Lao,  A. Laurent,  K. V. Lawler,  
 Joonho Lee,  D. Lefrancois,  S. Lehtola,  D. S. Levine,  Yi-Pei Li,  
 You-Sheng Lin,  Fenglai Liu,  E. Livshits,  A. Luenser,  P. Manohar,  
 E. Mansoor,  S. F. Manzer,  Shan-Ping Mao,  Yuezhi Mao,  N. Mardirossian,  
 A. V. Marenich,  T. Markovich,  L. A. Martinez-Martinez,  S. A. Maurer,  
 N. J. Mayhall,  S. C. McKenzie,  J.-M. Mewes,  A. F. Morrison,  
 J. W. Mullinax,  K. Nanda,  T. S. Nguyen-Beck,  R. Olivares-Amaya,  
 J. A. Parkhill,  T. M. Perrine,  F. Plasser,  P. Pokhilko,  S. Prager,  
 A. Prociuk,  E. Ramos,  D. R. Rehn,  F. Rob,  M. Schneider,  N. Sergueev,  
 S. M. Sharada,  S. Sharma,  D. W. Small,  T. Stauch,  T. Stein,  
 Yu-Chuan Su,  A. J. W. Thom,  A. Tkatchenko,  T. Tsuchimochi,  N. M. Tubman,  
 L. Vogt,  M. L. Vidal,  O. Vydrov,  M. A. Watson,  J. Wenzel,  
 M. de Wergifosse,  T. A. Wesolowski,  A. White,  J. Witte,  A. Yamada,  
 Jun Yang,  K. Yao,  S. Yeganeh,  S. R. Yost,  Zhi-Qiang You,  A. Zech,  
 Igor Ying Zhang,  Xing Zhang,  Yan Zhao,  Ying Zhu,  B. R. Brooks,  
 G. K. L. Chan,  C. J. Cramer,  M. S. Gordon,  W. J. Hehre,  A. Klamt,  
 M. W. Schmidt,  C. D. Sherrill,  D. G. Truhlar,  A. Aspuru-Guzik,  R. Baer,  
 A. T. Bell,  N. A. Besley,  Jeng-Da Chai,  A. E. DePrince, III,  
 R. A. DiStasio Jr.,  A. Dreuw,  B. D. Dunietz,  T. R. Furlani,  
 Chao-Ping Hsu,  Yousung Jung,  Jing Kong,  D. S. Lambrecht,  WanZhen Liang,  
 C. Ochsenfeld,  V. A. Rassolov,  L. V. Slipchenko,  J. E. Subotnik,  
 T. Van Voorhis,  J. M. Herbert,  A. I. Krylov,  P. M. W. Gill,  M. Head-Gordon

 Contributors to earlier versions of Q-Chem not listed above: 
 R. D. Adamson,  B. Austin,  J. Baker,  G. J. O. Beran,  K. Brandhorst,  
 S. T. Brown,  E. F. C. Byrd,  A. K. Chakraborty,  C.-L. Cheng,  
 Siu Hung Chien,  D. M. Chipman,  D. L. Crittenden,  H. Dachsel,  
 R. J. Doerksen,  A. D. Dutoi,  L. Fusti-Molnar,  W. A. Goddard III,  
 A. Golubeva-Zadorozhnaya,  S. R. Gwaltney,  G. Hawkins,  A. Heyden,  
 S. Hirata,  G. Kedziora,  F. J. Keil,  C. Kelley,  Jihan Kim,  R. A. King,  
 R. Z. Khaliullin,  P. P. Korambath,  W. Kurlancheek,  A. M. Lee,  M. S. Lee,  
 S. V. Levchenko,  Ching Yeh Lin,  D. Liotard,  R. C. Lochan,  I. Lotan,  
 P. E. Maslen,  N. Nair,  D. P. O'Neill,  D. Neuhauser,  E. Neuscamman,  
 C. M. Oana,  R. Olson,  B. Peters,  R. Peverati,  P. A. Pieniazek,  
 Y. M. Rhee,  J. Ritchie,  M. A. Rohrdanz,  E. Rosta,  N. J. Russ,  
 H. F. Schaefer III,  N. E. Schultz,  N. Shenvi,  A. C. Simmonett,  A. Sodt,  
 D. Stuck,  K. S. Thanthiriwatte,  V. Vanovschi,  Tao Wang,  A. Warshel,  
 C. F. Williams,  Q. Wu,  X. Xu,  W. Zhang

 Please cite Q-Chem as follows:
 Y. Shao et al., Mol. Phys. 113, 184-215 (2015)
 DOI: 10.1080/00268976.2014.952696

 Q-Chem 5.1.1 for Intel X86 EM64T Linux

 Parts of Q-Chem use Armadillo 8.300.2 (Tropical Shenanigans).
 http://arma.sourceforge.net/

 Q-Chem begins on Sat Oct  3 13:54:26 2020  

Host: n0092.mhg0
0

     Scratch files written to /local/scratch/users/yhljason/CH2BH_PTPSS-D3_aug-cc-pcVTZ.inp20201003135019//
The previous job contains 0 fragments, simply inherited here
Input Ideriv = 0
Curr. Ideriv = -1
Max.  Ideriv = 0
Analytic post-HF gradients are not available with non-HF exchange
Input Ideriv = 0
Curr. Ideriv = 0
Max.  Ideriv = 0

Checking the input file for inconsistencies... 	...done.

--------------------------------------------------------------
User input:
--------------------------------------------------------------
$molecule
read
$end

$rem

jobtype sp
method PTPSS-D3
xc_grid 000099000590
basis aug-cc-pcVTZ
max_scf_cycles 200
thresh 14
scf_convergence 8
mem_total 128000
cc_memory 96000
cc_backend xm
mem_static 1500
symmetry false
sym_ignore true
scf_guess read
unrestricted false
scf_algorithm gdm
n_frozen_core 0
$end

$multipole_field
XX 0.0001
$end


--------------------------------------------------------------
 Adding empirical dispersion correction 
 ----------------------------------------------------------------
 Doing -D3(0) with
 s6  =   0.75000
 s8  =   0.87900
 rs6 =   1.54100
 rs8 =   1.00000
 -D3 energy without 3body term =     -0.0002713263 hartrees
 ----------------------------------------------------------------
             Standard Nuclear Orientation (Angstroms)
    I     Atom           X                Y                Z
 ----------------------------------------------------------------
    1      C       0.0000000000     0.0000000000     0.5940000000
    2      B       0.0000000000     0.0000000000    -0.7886000000
    3      H       0.0000000000     0.9173000000     1.1687000000
    4      H       0.0000000000    -0.9173000000     1.1687000000
    5      H       0.0000000000     0.0000000000    -1.9586000000
 ----------------------------------------------------------------
 Nuclear Repulsion Energy =    23.9149089377 hartrees
 There are        7 alpha and        7 beta electrons
 Requested basis set is aug-cc-pCVTZ
 There are 65 shells and 187 basis functions

 Total QAlloc Memory Limit 128000 MB
 Mega-Array Size      1467 MB
 MEM_STATIC part      1500 MB

                       Distance Matrix (Angstroms)
             C (  1)   B (  2)   H (  3)   H (  4)
   B (  2)  1.382600
   H (  3)  1.082460  2.161588
   H (  4)  1.082460  2.161588  1.834600
   H (  5)  2.552600  1.170000  3.259056  3.259056
 
 Applying Cartesian multipole field
    Component          Value
    ---------          -----
     (2,0,0)        1.00000E-04
 A cutoff of  1.0D-14 yielded   2137 shell pairs
 There are     17781 function pairs (     23142 Cartesian)
 
 -------------------------------------------------------
 OpenMP Integral Computing Module                       
 Release: version 1.0, May 2013, Q-Chem Inc. Pittsburgh 
 -------------------------------------------------------
 Integral Job Info:
 Integral job number is                      11
 Integral operator is                         1
 short-range coefficients                     0
 long-range coefficients              100000000
 Omega coefficients                           0
 if combine SR and LR in K                    0
 Integral screening is                        0
 Integral computing path is                   2
 max size of driver memory is            800000
 size of driver memory is                776718
 size of scratch memory is              6691272
 max col of scratch BK array              10000
 max len of scratch array in speh3          662
 max len of scratch index in speh4           32
 max int batch size is                      520
 min int batch size is                       52
 fixed nKL is                                52
 max L of basis functions is                  3
 order of int derivative is                   0
 number of shells is                         65
 number of basis is                         213
 number of cartesian basis is               213
 number of contracted shell pairs          2137
 number of primitive shell pairs           5026
 maxK2 (contraction) of shell pair           64
 max number of K2 of shell pair               1
 max number of CS2 of shell pair            369
 max number of PS2 of shell pair            576
 mem total for path MDJ                  570992
 -------------------------------------------------------
 Smallest overlap matrix eigenvalue = 4.46E-05
 Guess MOs from SCF MO coefficient file

 -----------------------------------------------------------------------
  General SCF calculation program by
  Eric Jon Sundstrom, Paul Horn, Yuezhi Mao, Dmitri Zuev, Alec White,
  David Stuck, Shaama M.S., Shane Yost, Joonho Lee, David Small,
  Daniel Levine, Susi Lehtola, Hugh Burton, Evgeny Epifanovsky
 -----------------------------------------------------------------------
 Exchange:     0.5000 Hartree-Fock + 0.5000 PTPSS-D3
 Correlation:  0.6250 PTPSS-D3
 Using Euler-Maclaurin-Lebedev (99,590) quadrature formula
 Dispersion:   Grimme D3
 using 8 threads for integral computing
 -------------------------------------------------------
 OpenMP Integral computing Module                
 Release: version 2.0, May 2017, Q-Chem Inc. Pleasanton 
 -------------------------------------------------------
 -------------------------------------------------------
 OpenMP BLAS3 based DFT computing Module                
 Release: version 1.0, May 2013, Q-Chem Inc. Pittsburgh 
 -------------------------------------------------------
 A restricted SCF calculation will be
 performed using GDM
 SCF converges when RMS gradient is below 1.0e-08
 ---------------------------------------
  Cycle       Energy        RMS Gradient
 ---------------------------------------
    1     -64.5414272240      4.59e-04   Normal BFGS step
    2     -64.5414280702      1.10e-04   Normal BFGS step
    3     -64.5414281432      9.91e-05   Normal BFGS step
    4     -64.5414281723      1.98e-05   Normal BFGS step
    5     -64.5414281736      7.26e-06   Normal BFGS step
    6     -64.5414281740      5.92e-07   Normal BFGS step
    7     -64.5414281740      1.14e-07   Normal BFGS step
    8     -64.5414281740      1.83e-08   Normal BFGS step
    9     -64.5414281740      4.44e-09  Convergence criterion met
 ---------------------------------------
 SCF time:   CPU 485.69s  wall 61.00s 
 SCF   energy in the final basis set =      -64.5414281740
 Total energy in the final basis set =      -64.5414281740
 
 Components of the MP2 correlation energy:
        aaaa  correlation energy =         0.0000000000 au
        abab  correlation energy =        -0.1312208041 au
        bbbb  correlation energy =         0.0000000000 au
        non-Brillouin singles    =        -0.0000000000 au

 Total  MP2   correlation energy =                    -0.13122080 au
        MP2         total energy =                   -64.67264898 au
 
 --------------------------------------------------------------
 
                    Orbital Energies (a.u.)
 --------------------------------------------------------------
 
 Alpha MOs
 -- Occupied --
-10.565  -7.109  -0.777  -0.546  -0.478  -0.460  -0.277
 -- Virtual --
 -0.011   0.016   0.028   0.030   0.033   0.063   0.066   0.066
  0.075   0.104   0.104   0.122   0.133   0.141   0.142   0.174
  0.184   0.211   0.219   0.248   0.251   0.272   0.275   0.276
  0.305   0.309   0.317   0.342   0.357   0.359   0.370   0.381
  0.383   0.396   0.419   0.453   0.455   0.527   0.564   0.591
  0.603   0.626   0.626   0.629   0.661   0.693   0.701   0.722
  0.758   0.766   0.771   0.772   0.794   0.814   0.829   0.851
  0.852   0.894   0.939   0.939   0.971   0.999   1.010   1.019
  1.021   1.059   1.080   1.105   1.156   1.169   1.186   1.248
  1.263   1.263   1.277   1.362   1.399   1.443   1.450   1.504
  1.540   1.545   1.625   1.628   1.629   1.629   1.649   1.716
  1.718   1.735   1.739   1.833   1.885   1.966   1.970   2.004
  2.074   2.126   2.148   2.177   2.221   2.282   2.485   2.488
  2.515   2.663   2.669   2.720   2.837   2.951   2.979   3.069
  3.080   3.093   3.158   3.383   3.433   3.480   3.594   3.599
  3.637   3.646   3.657   3.810   3.897   3.933   3.958   3.995
  4.048   4.067   4.091   4.278   4.297   4.409   4.461   4.494
  4.569   4.624   4.635   4.660   4.677   4.907   4.978   5.100
  5.145   5.189   5.197   5.356   5.513   5.675   5.944   6.001
  6.374   6.489  10.402  10.636  11.784  12.148  15.486  16.353
 16.425  17.276  36.723  36.730  36.802  36.835  37.006  41.029
 41.052  41.221  41.242  41.282  55.562  55.707  56.757  60.416
 80.638  81.279  81.303  86.696
 --------------------------------------------------------------
 
          Ground-State Mulliken Net Atomic Charges

     Atom                 Charge (a.u.)
  ----------------------------------------
      1 C                    -1.116189
      2 B                    -0.077106
      3 H                     0.559760
      4 H                     0.559760
      5 H                     0.073775
  ----------------------------------------
  Sum of atomic charges =     0.000000

 -----------------------------------------------------------------
                    Cartesian Multipole Moments
 -----------------------------------------------------------------
    Charge (ESU x 10^10)
                 0.0000
    Dipole Moment (Debye)
         X      -0.0000      Y      -0.0000      Z      -0.7261
       Tot       0.7261
    Quadrupole Moments (Debye-Ang)
        XX     -16.4014     XY      -0.0000     YY     -11.7635
        XZ       0.0000     YZ      -0.0000     ZZ     -11.5705
    Octopole Moments (Debye-Ang^2)
       XXX      -0.0000    XXY      -0.0000    XYY      -0.0000
       YYY      -0.0000    XXZ       0.4605    XYZ      -0.0000
       YYZ       1.4319    XZZ      -0.0000    YZZ      -0.0000
       ZZZ       1.8976
    Hexadecapole Moments (Debye-Ang^3)
      XXXX     -25.8968   XXXY      -0.0000   XXYY      -8.1727
      XYYY       0.0000   YYYY     -20.4520   XXXZ      -0.0000
      XXYZ      -0.0000   XYYZ      -0.0000   YYYZ      -0.0000
      XXZZ     -18.6364   XYZZ       0.0000   YYZZ     -14.5185
      XZZZ      -0.0000   YZZZ      -0.0000   ZZZZ     -75.7662
 -----------------------------------------------------------------
Archival summary:
1\1\n0092.mhg0\SP\ProcedureUnspecified\BasisUnspecified\113\yhljason\SatOct313:56:002020SatOct313:56:002020\0\\#,ProcedureUnspecified,BasisUnspecified,\\0,1\C\H,1,1.08246\H,1,1.08246,2,115.865\B,1,1.3826,2,122.068,3,-180,0\H,4,1.17,1,180,2,0,0\\\@

 Total job time:  94.56s(wall), 755.30s(cpu) 
 Sat Oct  3 13:56:00 2020

        *************************************************************
        *                                                           *
        *  Thank you very much for using Q-Chem.  Have a nice day.  *
        *                                                           *
        *************************************************************


 
User input: 4 of 8 
 
Q-Chem Developer Version!
                  Welcome to Q-Chem
     A Quantum Leap Into The Future Of Chemistry


 Q-Chem 5.1, Q-Chem, Inc., Pleasanton, CA (2018)

 Yihan Shao,  Zhengting Gan,  E. Epifanovsky,  A. T. B. Gilbert,  M. Wormit,  
 J. Kussmann,  A. W. Lange,  A. Behn,  Jia Deng,  Xintian Feng,  D. Ghosh,  
 M. Goldey,  P. R. Horn,  L. D. Jacobson,  I. Kaliman,  T. Kus,  A. Landau,  
 Jie Liu,  E. I. Proynov,  R. M. Richard,  R. P. Steele,  E. J. Sundstrom,  
 H. L. Woodcock III,  P. M. Zimmerman,  D. Zuev,  B. Albrecht,  E. Alguire,  
 S. A. Baeppler,  D. Barton,  Z. Benda,  Y. A. Bernard,  E. J. Berquist,  
 K. B. Bravaya,  H. Burton,  D. Casanova,  Chun-Min Chang,  Yunqing Chen,  
 A. Chien,  K. D. Closser,  M. P. Coons,  S. Coriani,  S. Dasgupta,  
 A. L. Dempwolff,  M. Diedenhofen,  Hainam Do,  R. G. Edgar,  Po-Tung Fang,  
 S. Faraji,  S. Fatehi,  Qingguo Feng,  K. D. Fenk,  J. Fosso-Tande,  
 Qinghui Ge,  A. Ghysels,  G. Gidofalvi,  J. Gomes,  J. Gonthier,  A. Gunina,  
 D. Hait,  M. W. D. Hanson-Heine,  P. H. P. Harbach,  A. W. Hauser,  
 J. E. Herr,  E. G. Hohenstein,  Z. C. Holden,  Kerwin Hui,  B. C. Huynh,  
 T.-C. Jagau,  Hyunjun Ji,  B. Kaduk,  K. Khistyaev,  Jaehoon Kim,  
 P. Klunzinger,  K. Koh,  D. Kosenkov,  L. Koulias,  T. Kowalczyk,  
 C. M. Krauter,  A. Kunitsa,  Ka Un Lao,  A. Laurent,  K. V. Lawler,  
 Joonho Lee,  D. Lefrancois,  S. Lehtola,  D. S. Levine,  Yi-Pei Li,  
 You-Sheng Lin,  Fenglai Liu,  E. Livshits,  A. Luenser,  P. Manohar,  
 E. Mansoor,  S. F. Manzer,  Shan-Ping Mao,  Yuezhi Mao,  N. Mardirossian,  
 A. V. Marenich,  T. Markovich,  L. A. Martinez-Martinez,  S. A. Maurer,  
 N. J. Mayhall,  S. C. McKenzie,  J.-M. Mewes,  A. F. Morrison,  
 J. W. Mullinax,  K. Nanda,  T. S. Nguyen-Beck,  R. Olivares-Amaya,  
 J. A. Parkhill,  T. M. Perrine,  F. Plasser,  P. Pokhilko,  S. Prager,  
 A. Prociuk,  E. Ramos,  D. R. Rehn,  F. Rob,  M. Schneider,  N. Sergueev,  
 S. M. Sharada,  S. Sharma,  D. W. Small,  T. Stauch,  T. Stein,  
 Yu-Chuan Su,  A. J. W. Thom,  A. Tkatchenko,  T. Tsuchimochi,  N. M. Tubman,  
 L. Vogt,  M. L. Vidal,  O. Vydrov,  M. A. Watson,  J. Wenzel,  
 M. de Wergifosse,  T. A. Wesolowski,  A. White,  J. Witte,  A. Yamada,  
 Jun Yang,  K. Yao,  S. Yeganeh,  S. R. Yost,  Zhi-Qiang You,  A. Zech,  
 Igor Ying Zhang,  Xing Zhang,  Yan Zhao,  Ying Zhu,  B. R. Brooks,  
 G. K. L. Chan,  C. J. Cramer,  M. S. Gordon,  W. J. Hehre,  A. Klamt,  
 M. W. Schmidt,  C. D. Sherrill,  D. G. Truhlar,  A. Aspuru-Guzik,  R. Baer,  
 A. T. Bell,  N. A. Besley,  Jeng-Da Chai,  A. E. DePrince, III,  
 R. A. DiStasio Jr.,  A. Dreuw,  B. D. Dunietz,  T. R. Furlani,  
 Chao-Ping Hsu,  Yousung Jung,  Jing Kong,  D. S. Lambrecht,  WanZhen Liang,  
 C. Ochsenfeld,  V. A. Rassolov,  L. V. Slipchenko,  J. E. Subotnik,  
 T. Van Voorhis,  J. M. Herbert,  A. I. Krylov,  P. M. W. Gill,  M. Head-Gordon

 Contributors to earlier versions of Q-Chem not listed above: 
 R. D. Adamson,  B. Austin,  J. Baker,  G. J. O. Beran,  K. Brandhorst,  
 S. T. Brown,  E. F. C. Byrd,  A. K. Chakraborty,  C.-L. Cheng,  
 Siu Hung Chien,  D. M. Chipman,  D. L. Crittenden,  H. Dachsel,  
 R. J. Doerksen,  A. D. Dutoi,  L. Fusti-Molnar,  W. A. Goddard III,  
 A. Golubeva-Zadorozhnaya,  S. R. Gwaltney,  G. Hawkins,  A. Heyden,  
 S. Hirata,  G. Kedziora,  F. J. Keil,  C. Kelley,  Jihan Kim,  R. A. King,  
 R. Z. Khaliullin,  P. P. Korambath,  W. Kurlancheek,  A. M. Lee,  M. S. Lee,  
 S. V. Levchenko,  Ching Yeh Lin,  D. Liotard,  R. C. Lochan,  I. Lotan,  
 P. E. Maslen,  N. Nair,  D. P. O'Neill,  D. Neuhauser,  E. Neuscamman,  
 C. M. Oana,  R. Olson,  B. Peters,  R. Peverati,  P. A. Pieniazek,  
 Y. M. Rhee,  J. Ritchie,  M. A. Rohrdanz,  E. Rosta,  N. J. Russ,  
 H. F. Schaefer III,  N. E. Schultz,  N. Shenvi,  A. C. Simmonett,  A. Sodt,  
 D. Stuck,  K. S. Thanthiriwatte,  V. Vanovschi,  Tao Wang,  A. Warshel,  
 C. F. Williams,  Q. Wu,  X. Xu,  W. Zhang

 Please cite Q-Chem as follows:
 Y. Shao et al., Mol. Phys. 113, 184-215 (2015)
 DOI: 10.1080/00268976.2014.952696

 Q-Chem 5.1.1 for Intel X86 EM64T Linux

 Parts of Q-Chem use Armadillo 8.300.2 (Tropical Shenanigans).
 http://arma.sourceforge.net/

 Q-Chem begins on Sat Oct  3 13:56:00 2020  

Host: n0092.mhg0
0

     Scratch files written to /local/scratch/users/yhljason/CH2BH_PTPSS-D3_aug-cc-pcVTZ.inp20201003135019//
The previous job contains 0 fragments, simply inherited here
Input Ideriv = 0
Curr. Ideriv = -1
Max.  Ideriv = 0
Analytic post-HF gradients are not available with non-HF exchange
Input Ideriv = 0
Curr. Ideriv = 0
Max.  Ideriv = 0

Checking the input file for inconsistencies... 	...done.

--------------------------------------------------------------
User input:
--------------------------------------------------------------
$molecule
read
$end

$rem

jobtype sp
method PTPSS-D3
xc_grid 000099000590
basis aug-cc-pcVTZ
max_scf_cycles 200
thresh 14
scf_convergence 8
mem_total 128000
cc_memory 96000
cc_backend xm
mem_static 1500
symmetry false
sym_ignore true
scf_guess read
unrestricted false
scf_algorithm gdm
n_frozen_core 0
$end

$multipole_field
XX -0.0001
$end


--------------------------------------------------------------
 Adding empirical dispersion correction 
 ----------------------------------------------------------------
 Doing -D3(0) with
 s6  =   0.75000
 s8  =   0.87900
 rs6 =   1.54100
 rs8 =   1.00000
 -D3 energy without 3body term =     -0.0002713263 hartrees
 ----------------------------------------------------------------
             Standard Nuclear Orientation (Angstroms)
    I     Atom           X                Y                Z
 ----------------------------------------------------------------
    1      C       0.0000000000     0.0000000000     0.5940000000
    2      B       0.0000000000     0.0000000000    -0.7886000000
    3      H       0.0000000000     0.9173000000     1.1687000000
    4      H       0.0000000000    -0.9173000000     1.1687000000
    5      H       0.0000000000     0.0000000000    -1.9586000000
 ----------------------------------------------------------------
 Nuclear Repulsion Energy =    23.9149089377 hartrees
 There are        7 alpha and        7 beta electrons
 Requested basis set is aug-cc-pCVTZ
 There are 65 shells and 187 basis functions

 Total QAlloc Memory Limit 128000 MB
 Mega-Array Size      1467 MB
 MEM_STATIC part      1500 MB

                       Distance Matrix (Angstroms)
             C (  1)   B (  2)   H (  3)   H (  4)
   B (  2)  1.382600
   H (  3)  1.082460  2.161588
   H (  4)  1.082460  2.161588  1.834600
   H (  5)  2.552600  1.170000  3.259056  3.259056
 
 Applying Cartesian multipole field
    Component          Value
    ---------          -----
     (2,0,0)       -1.00000E-04
 A cutoff of  1.0D-14 yielded   2137 shell pairs
 There are     17781 function pairs (     23142 Cartesian)
 
 -------------------------------------------------------
 OpenMP Integral Computing Module                       
 Release: version 1.0, May 2013, Q-Chem Inc. Pittsburgh 
 -------------------------------------------------------
 Integral Job Info:
 Integral job number is                      11
 Integral operator is                         1
 short-range coefficients                     0
 long-range coefficients              100000000
 Omega coefficients                           0
 if combine SR and LR in K                    0
 Integral screening is                        0
 Integral computing path is                   2
 max size of driver memory is            800000
 size of driver memory is                776718
 size of scratch memory is              6691272
 max col of scratch BK array              10000
 max len of scratch array in speh3          662
 max len of scratch index in speh4           32
 max int batch size is                      520
 min int batch size is                       52
 fixed nKL is                                52
 max L of basis functions is                  3
 order of int derivative is                   0
 number of shells is                         65
 number of basis is                         213
 number of cartesian basis is               213
 number of contracted shell pairs          2137
 number of primitive shell pairs           5026
 maxK2 (contraction) of shell pair           64
 max number of K2 of shell pair               1
 max number of CS2 of shell pair            369
 max number of PS2 of shell pair            576
 mem total for path MDJ                  570992
 -------------------------------------------------------
 Smallest overlap matrix eigenvalue = 4.46E-05
 Guess MOs from SCF MO coefficient file

 -----------------------------------------------------------------------
  General SCF calculation program by
  Eric Jon Sundstrom, Paul Horn, Yuezhi Mao, Dmitri Zuev, Alec White,
  David Stuck, Shaama M.S., Shane Yost, Joonho Lee, David Small,
  Daniel Levine, Susi Lehtola, Hugh Burton, Evgeny Epifanovsky
 -----------------------------------------------------------------------
 Exchange:     0.5000 Hartree-Fock + 0.5000 PTPSS-D3
 Correlation:  0.6250 PTPSS-D3
 Using Euler-Maclaurin-Lebedev (99,590) quadrature formula
 Dispersion:   Grimme D3
 using 8 threads for integral computing
 -------------------------------------------------------
 OpenMP Integral computing Module                
 Release: version 2.0, May 2017, Q-Chem Inc. Pleasanton 
 -------------------------------------------------------
 -------------------------------------------------------
 OpenMP BLAS3 based DFT computing Module                
 Release: version 1.0, May 2013, Q-Chem Inc. Pittsburgh 
 -------------------------------------------------------
 A restricted SCF calculation will be
 performed using GDM
 SCF converges when RMS gradient is below 1.0e-08
 ---------------------------------------
  Cycle       Energy        RMS Gradient
 ---------------------------------------
    1     -64.5389893604      9.04e-04   Normal BFGS step
    2     -64.5389927495      2.21e-04   Normal BFGS step
    3     -64.5389930370      1.93e-04   Normal BFGS step
    4     -64.5389931541      3.74e-05   Normal BFGS step
    5     -64.5389931590      1.46e-05   Normal BFGS step
    6     -64.5389931607      1.14e-06   Normal BFGS step
    7     -64.5389931607      2.24e-07   Normal BFGS step
    8     -64.5389931607      3.68e-08   Normal BFGS step
    9     -64.5389931607      8.92e-09  Convergence criterion met
 ---------------------------------------
 SCF time:   CPU 486.42s  wall 61.00s 
 SCF   energy in the final basis set =      -64.5389931607
 Total energy in the final basis set =      -64.5389931607
 
 Components of the MP2 correlation energy:
        aaaa  correlation energy =         0.0000000000 au
        abab  correlation energy =        -0.1312422795 au
        bbbb  correlation energy =         0.0000000000 au
        non-Brillouin singles    =        -0.0000000000 au

 Total  MP2   correlation energy =                    -0.13124228 au
        MP2         total energy =                   -64.67023544 au
 
 --------------------------------------------------------------
 
                    Orbital Energies (a.u.)
 --------------------------------------------------------------
 
 Alpha MOs
 -- Occupied --
-10.564  -7.108  -0.777  -0.545  -0.477  -0.459  -0.276
 -- Virtual --
 -0.010   0.019   0.032   0.036   0.038   0.067   0.068   0.070
  0.082   0.107   0.112   0.125   0.135   0.144   0.145   0.176
  0.188   0.215   0.222   0.251   0.253   0.276   0.277   0.278
  0.307   0.312   0.320   0.343   0.359   0.361   0.373   0.382
  0.385   0.398   0.420   0.455   0.456   0.528   0.565   0.592
  0.605   0.627   0.628   0.630   0.662   0.694   0.703   0.724
  0.759   0.766   0.773   0.773   0.795   0.815   0.830   0.852
  0.854   0.895   0.939   0.940   0.972   1.000   1.011   1.020
  1.022   1.060   1.081   1.106   1.157   1.170   1.187   1.249
  1.264   1.265   1.277   1.363   1.400   1.444   1.451   1.505
  1.542   1.546   1.626   1.629   1.630   1.630   1.650   1.718
  1.718   1.736   1.740   1.834   1.886   1.967   1.970   2.005
  2.074   2.127   2.149   2.178   2.221   2.282   2.486   2.489
  2.516   2.664   2.670   2.721   2.838   2.952   2.980   3.070
  3.081   3.094   3.159   3.384   3.434   3.481   3.595   3.599
  3.638   3.647   3.658   3.811   3.897   3.934   3.959   3.995
  4.049   4.068   4.091   4.279   4.297   4.410   4.462   4.494
  4.569   4.625   4.636   4.661   4.678   4.908   4.978   5.101
  5.145   5.189   5.197   5.356   5.513   5.675   5.945   6.002
  6.375   6.490  10.403  10.637  11.785  12.149  15.486  16.353
 16.426  17.277  36.723  36.731  36.803  36.836  37.007  41.029
 41.053  41.222  41.243  41.283  55.562  55.708  56.758  60.417
 80.639  81.280  81.304  86.696
 --------------------------------------------------------------
 
          Ground-State Mulliken Net Atomic Charges

     Atom                 Charge (a.u.)
  ----------------------------------------
      1 C                    -1.114888
      2 B                    -0.071564
      3 H                     0.557978
      4 H                     0.557978
      5 H                     0.070495
  ----------------------------------------
  Sum of atomic charges =    -0.000000

 -----------------------------------------------------------------
                    Cartesian Multipole Moments
 -----------------------------------------------------------------
    Charge (ESU x 10^10)
                -0.0000
    Dipole Moment (Debye)
         X       0.0000      Y       0.0000      Z      -0.7280
       Tot       0.7280
    Quadrupole Moments (Debye-Ang)
        XX     -16.3506     XY       0.0000     YY     -11.7568
        XZ       0.0000     YZ       0.0000     ZZ     -11.5703
    Octopole Moments (Debye-Ang^2)
       XXX       0.0000    XXY      -0.0000    XYY       0.0000
       YYY      -0.0000    XXZ       0.4566    XYZ       0.0000
       YYZ       1.4264    XZZ      -0.0000    YZZ      -0.0000
       ZZZ       1.9023
    Hexadecapole Moments (Debye-Ang^3)
      XXXX     -25.5679   XXXY       0.0000   XXYY      -8.1150
      XYYY       0.0000   YYYY     -20.4140   XXXZ      -0.0000
      XXYZ      -0.0000   XYYZ       0.0000   YYYZ       0.0000
      XXZZ     -18.5624   XYZZ       0.0000   YYZZ     -14.5095
      XZZZ       0.0000   YZZZ       0.0000   ZZZZ     -75.7546
 -----------------------------------------------------------------
Archival summary:
1\1\n0092.mhg0\SP\ProcedureUnspecified\BasisUnspecified\113\yhljason\SatOct313:57:352020SatOct313:57:352020\0\\#,ProcedureUnspecified,BasisUnspecified,\\0,1\C\H,1,1.08246\H,1,1.08246,2,115.865\B,1,1.3826,2,122.068,3,-180,0\H,4,1.17,1,180,2,0,0\\\@

 Total job time:  94.48s(wall), 753.76s(cpu) 
 Sat Oct  3 13:57:35 2020

        *************************************************************
        *                                                           *
        *  Thank you very much for using Q-Chem.  Have a nice day.  *
        *                                                           *
        *************************************************************


 
User input: 5 of 8 
 
Q-Chem Developer Version!
                  Welcome to Q-Chem
     A Quantum Leap Into The Future Of Chemistry


 Q-Chem 5.1, Q-Chem, Inc., Pleasanton, CA (2018)

 Yihan Shao,  Zhengting Gan,  E. Epifanovsky,  A. T. B. Gilbert,  M. Wormit,  
 J. Kussmann,  A. W. Lange,  A. Behn,  Jia Deng,  Xintian Feng,  D. Ghosh,  
 M. Goldey,  P. R. Horn,  L. D. Jacobson,  I. Kaliman,  T. Kus,  A. Landau,  
 Jie Liu,  E. I. Proynov,  R. M. Richard,  R. P. Steele,  E. J. Sundstrom,  
 H. L. Woodcock III,  P. M. Zimmerman,  D. Zuev,  B. Albrecht,  E. Alguire,  
 S. A. Baeppler,  D. Barton,  Z. Benda,  Y. A. Bernard,  E. J. Berquist,  
 K. B. Bravaya,  H. Burton,  D. Casanova,  Chun-Min Chang,  Yunqing Chen,  
 A. Chien,  K. D. Closser,  M. P. Coons,  S. Coriani,  S. Dasgupta,  
 A. L. Dempwolff,  M. Diedenhofen,  Hainam Do,  R. G. Edgar,  Po-Tung Fang,  
 S. Faraji,  S. Fatehi,  Qingguo Feng,  K. D. Fenk,  J. Fosso-Tande,  
 Qinghui Ge,  A. Ghysels,  G. Gidofalvi,  J. Gomes,  J. Gonthier,  A. Gunina,  
 D. Hait,  M. W. D. Hanson-Heine,  P. H. P. Harbach,  A. W. Hauser,  
 J. E. Herr,  E. G. Hohenstein,  Z. C. Holden,  Kerwin Hui,  B. C. Huynh,  
 T.-C. Jagau,  Hyunjun Ji,  B. Kaduk,  K. Khistyaev,  Jaehoon Kim,  
 P. Klunzinger,  K. Koh,  D. Kosenkov,  L. Koulias,  T. Kowalczyk,  
 C. M. Krauter,  A. Kunitsa,  Ka Un Lao,  A. Laurent,  K. V. Lawler,  
 Joonho Lee,  D. Lefrancois,  S. Lehtola,  D. S. Levine,  Yi-Pei Li,  
 You-Sheng Lin,  Fenglai Liu,  E. Livshits,  A. Luenser,  P. Manohar,  
 E. Mansoor,  S. F. Manzer,  Shan-Ping Mao,  Yuezhi Mao,  N. Mardirossian,  
 A. V. Marenich,  T. Markovich,  L. A. Martinez-Martinez,  S. A. Maurer,  
 N. J. Mayhall,  S. C. McKenzie,  J.-M. Mewes,  A. F. Morrison,  
 J. W. Mullinax,  K. Nanda,  T. S. Nguyen-Beck,  R. Olivares-Amaya,  
 J. A. Parkhill,  T. M. Perrine,  F. Plasser,  P. Pokhilko,  S. Prager,  
 A. Prociuk,  E. Ramos,  D. R. Rehn,  F. Rob,  M. Schneider,  N. Sergueev,  
 S. M. Sharada,  S. Sharma,  D. W. Small,  T. Stauch,  T. Stein,  
 Yu-Chuan Su,  A. J. W. Thom,  A. Tkatchenko,  T. Tsuchimochi,  N. M. Tubman,  
 L. Vogt,  M. L. Vidal,  O. Vydrov,  M. A. Watson,  J. Wenzel,  
 M. de Wergifosse,  T. A. Wesolowski,  A. White,  J. Witte,  A. Yamada,  
 Jun Yang,  K. Yao,  S. Yeganeh,  S. R. Yost,  Zhi-Qiang You,  A. Zech,  
 Igor Ying Zhang,  Xing Zhang,  Yan Zhao,  Ying Zhu,  B. R. Brooks,  
 G. K. L. Chan,  C. J. Cramer,  M. S. Gordon,  W. J. Hehre,  A. Klamt,  
 M. W. Schmidt,  C. D. Sherrill,  D. G. Truhlar,  A. Aspuru-Guzik,  R. Baer,  
 A. T. Bell,  N. A. Besley,  Jeng-Da Chai,  A. E. DePrince, III,  
 R. A. DiStasio Jr.,  A. Dreuw,  B. D. Dunietz,  T. R. Furlani,  
 Chao-Ping Hsu,  Yousung Jung,  Jing Kong,  D. S. Lambrecht,  WanZhen Liang,  
 C. Ochsenfeld,  V. A. Rassolov,  L. V. Slipchenko,  J. E. Subotnik,  
 T. Van Voorhis,  J. M. Herbert,  A. I. Krylov,  P. M. W. Gill,  M. Head-Gordon

 Contributors to earlier versions of Q-Chem not listed above: 
 R. D. Adamson,  B. Austin,  J. Baker,  G. J. O. Beran,  K. Brandhorst,  
 S. T. Brown,  E. F. C. Byrd,  A. K. Chakraborty,  C.-L. Cheng,  
 Siu Hung Chien,  D. M. Chipman,  D. L. Crittenden,  H. Dachsel,  
 R. J. Doerksen,  A. D. Dutoi,  L. Fusti-Molnar,  W. A. Goddard III,  
 A. Golubeva-Zadorozhnaya,  S. R. Gwaltney,  G. Hawkins,  A. Heyden,  
 S. Hirata,  G. Kedziora,  F. J. Keil,  C. Kelley,  Jihan Kim,  R. A. King,  
 R. Z. Khaliullin,  P. P. Korambath,  W. Kurlancheek,  A. M. Lee,  M. S. Lee,  
 S. V. Levchenko,  Ching Yeh Lin,  D. Liotard,  R. C. Lochan,  I. Lotan,  
 P. E. Maslen,  N. Nair,  D. P. O'Neill,  D. Neuhauser,  E. Neuscamman,  
 C. M. Oana,  R. Olson,  B. Peters,  R. Peverati,  P. A. Pieniazek,  
 Y. M. Rhee,  J. Ritchie,  M. A. Rohrdanz,  E. Rosta,  N. J. Russ,  
 H. F. Schaefer III,  N. E. Schultz,  N. Shenvi,  A. C. Simmonett,  A. Sodt,  
 D. Stuck,  K. S. Thanthiriwatte,  V. Vanovschi,  Tao Wang,  A. Warshel,  
 C. F. Williams,  Q. Wu,  X. Xu,  W. Zhang

 Please cite Q-Chem as follows:
 Y. Shao et al., Mol. Phys. 113, 184-215 (2015)
 DOI: 10.1080/00268976.2014.952696

 Q-Chem 5.1.1 for Intel X86 EM64T Linux

 Parts of Q-Chem use Armadillo 8.300.2 (Tropical Shenanigans).
 http://arma.sourceforge.net/

 Q-Chem begins on Sat Oct  3 13:57:35 2020  

Host: n0092.mhg0
0

     Scratch files written to /local/scratch/users/yhljason/CH2BH_PTPSS-D3_aug-cc-pcVTZ.inp20201003135019//
The previous job contains 0 fragments, simply inherited here
Input Ideriv = 0
Curr. Ideriv = -1
Max.  Ideriv = 0
Analytic post-HF gradients are not available with non-HF exchange
Input Ideriv = 0
Curr. Ideriv = 0
Max.  Ideriv = 0

Checking the input file for inconsistencies... 	...done.

--------------------------------------------------------------
User input:
--------------------------------------------------------------
$molecule
read
$end

$rem

jobtype sp
method PTPSS-D3
xc_grid 000099000590
basis aug-cc-pcVTZ
max_scf_cycles 200
thresh 14
scf_convergence 8
mem_total 128000
cc_memory 96000
cc_backend xm
mem_static 1500
symmetry false
sym_ignore true
scf_guess read
unrestricted false
scf_algorithm gdm
n_frozen_core 0
$end

$multipole_field
YY 0.0001
$end


--------------------------------------------------------------
 Adding empirical dispersion correction 
 ----------------------------------------------------------------
 Doing -D3(0) with
 s6  =   0.75000
 s8  =   0.87900
 rs6 =   1.54100
 rs8 =   1.00000
 -D3 energy without 3body term =     -0.0002713263 hartrees
 ----------------------------------------------------------------
             Standard Nuclear Orientation (Angstroms)
    I     Atom           X                Y                Z
 ----------------------------------------------------------------
    1      C       0.0000000000     0.0000000000     0.5940000000
    2      B       0.0000000000     0.0000000000    -0.7886000000
    3      H       0.0000000000     0.9173000000     1.1687000000
    4      H       0.0000000000    -0.9173000000     1.1687000000
    5      H       0.0000000000     0.0000000000    -1.9586000000
 ----------------------------------------------------------------
 Nuclear Repulsion Energy =    23.9149089377 hartrees
 There are        7 alpha and        7 beta electrons
 Requested basis set is aug-cc-pCVTZ
 There are 65 shells and 187 basis functions

 Total QAlloc Memory Limit 128000 MB
 Mega-Array Size      1467 MB
 MEM_STATIC part      1500 MB

                       Distance Matrix (Angstroms)
             C (  1)   B (  2)   H (  3)   H (  4)
   B (  2)  1.382600
   H (  3)  1.082460  2.161588
   H (  4)  1.082460  2.161588  1.834600
   H (  5)  2.552600  1.170000  3.259056  3.259056
 
 Applying Cartesian multipole field
    Component          Value
    ---------          -----
     (0,2,0)        1.00000E-04
 Nucleus-field energy     =     0.0006009669 hartrees
 A cutoff of  1.0D-14 yielded   2137 shell pairs
 There are     17781 function pairs (     23142 Cartesian)
 
 -------------------------------------------------------
 OpenMP Integral Computing Module                       
 Release: version 1.0, May 2013, Q-Chem Inc. Pittsburgh 
 -------------------------------------------------------
 Integral Job Info:
 Integral job number is                      11
 Integral operator is                         1
 short-range coefficients                     0
 long-range coefficients              100000000
 Omega coefficients                           0
 if combine SR and LR in K                    0
 Integral screening is                        0
 Integral computing path is                   2
 max size of driver memory is            800000
 size of driver memory is                776718
 size of scratch memory is              6691272
 max col of scratch BK array              10000
 max len of scratch array in speh3          662
 max len of scratch index in speh4           32
 max int batch size is                      520
 min int batch size is                       52
 fixed nKL is                                52
 max L of basis functions is                  3
 order of int derivative is                   0
 number of shells is                         65
 number of basis is                         213
 number of cartesian basis is               213
 number of contracted shell pairs          2137
 number of primitive shell pairs           5026
 maxK2 (contraction) of shell pair           64
 max number of K2 of shell pair               1
 max number of CS2 of shell pair            369
 max number of PS2 of shell pair            576
 mem total for path MDJ                  570992
 -------------------------------------------------------
 Smallest overlap matrix eigenvalue = 4.46E-05
 Guess MOs from SCF MO coefficient file

 -----------------------------------------------------------------------
  General SCF calculation program by
  Eric Jon Sundstrom, Paul Horn, Yuezhi Mao, Dmitri Zuev, Alec White,
  David Stuck, Shaama M.S., Shane Yost, Joonho Lee, David Small,
  Daniel Levine, Susi Lehtola, Hugh Burton, Evgeny Epifanovsky
 -----------------------------------------------------------------------
 Exchange:     0.5000 Hartree-Fock + 0.5000 PTPSS-D3
 Correlation:  0.6250 PTPSS-D3
 Using Euler-Maclaurin-Lebedev (99,590) quadrature formula
 Dispersion:   Grimme D3
 using 8 threads for integral computing
 -------------------------------------------------------
 OpenMP Integral computing Module                
 Release: version 2.0, May 2017, Q-Chem Inc. Pleasanton 
 -------------------------------------------------------
 -------------------------------------------------------
 OpenMP BLAS3 based DFT computing Module                
 Release: version 1.0, May 2013, Q-Chem Inc. Pittsburgh 
 -------------------------------------------------------
 A restricted SCF calculation will be
 performed using GDM
 SCF converges when RMS gradient is below 1.0e-08
 ---------------------------------------
  Cycle       Energy        RMS Gradient
 ---------------------------------------
    1     -64.5410828772      6.01e-04   Normal BFGS step
    2     -64.5410843401      2.01e-04   Normal BFGS step
    3     -64.5410845894      1.36e-04   Normal BFGS step
    4     -64.5410846332      3.88e-05   Normal BFGS step
    5     -64.5410846380      7.04e-06   Normal BFGS step
    6     -64.5410846385      8.01e-07   Normal BFGS step
    7     -64.5410846385      1.41e-07   Normal BFGS step
    8     -64.5410846385      1.93e-08   Normal BFGS step
    9     -64.5410846385      6.09e-09  Convergence criterion met
 ---------------------------------------
 SCF time:   CPU 486.36s  wall 61.00s 
 SCF   energy in the final basis set =      -64.5410846385
 Total energy in the final basis set =      -64.5410846385
 
 Components of the MP2 correlation energy:
        aaaa  correlation energy =         0.0000000000 au
        abab  correlation energy =        -0.1312327132 au
        bbbb  correlation energy =         0.0000000000 au
        non-Brillouin singles    =        -0.0000000000 au

 Total  MP2   correlation energy =                    -0.13123271 au
        MP2         total energy =                   -64.67231735 au
 
 --------------------------------------------------------------
 
                    Orbital Energies (a.u.)
 --------------------------------------------------------------
 
 Alpha MOs
 -- Occupied --
-10.564  -7.109  -0.777  -0.546  -0.478  -0.460  -0.277
 -- Virtual --
 -0.011   0.015   0.028   0.029   0.032   0.063   0.064   0.066
  0.076   0.102   0.107   0.120   0.132   0.141   0.142   0.173
  0.184   0.213   0.219   0.248   0.250   0.274   0.275   0.276
  0.304   0.310   0.318   0.340   0.356   0.358   0.370   0.381
  0.382   0.396   0.418   0.453   0.454   0.526   0.563   0.591
  0.603   0.626   0.626   0.629   0.661   0.692   0.701   0.722
  0.758   0.765   0.771   0.771   0.794   0.813   0.829   0.851
  0.852   0.894   0.938   0.939   0.971   0.999   1.010   1.019
  1.021   1.059   1.079   1.104   1.156   1.169   1.186   1.248
  1.263   1.263   1.276   1.362   1.399   1.443   1.450   1.504
  1.541   1.545   1.625   1.628   1.629   1.629   1.649   1.717
  1.717   1.736   1.739   1.833   1.884   1.966   1.970   2.004
  2.074   2.126   2.148   2.177   2.221   2.282   2.485   2.488
  2.515   2.663   2.669   2.720   2.837   2.951   2.979   3.069
  3.080   3.093   3.158   3.383   3.433   3.480   3.594   3.599
  3.637   3.646   3.657   3.810   3.897   3.933   3.958   3.994
  4.048   4.067   4.091   4.278   4.297   4.409   4.461   4.494
  4.569   4.624   4.635   4.660   4.677   4.907   4.977   5.100
  5.145   5.189   5.196   5.356   5.513   5.674   5.944   6.001
  6.374   6.489  10.402  10.636  11.784  12.148  15.486  16.353
 16.425  17.276  36.723  36.730  36.802  36.835  37.006  41.029
 41.052  41.221  41.242  41.282  55.562  55.707  56.757  60.416
 80.638  81.279  81.303  86.696
 --------------------------------------------------------------
 
          Ground-State Mulliken Net Atomic Charges

     Atom                 Charge (a.u.)
  ----------------------------------------
      1 C                    -1.115234
      2 B                    -0.074975
      3 H                     0.558560
      4 H                     0.558560
      5 H                     0.073088
  ----------------------------------------
  Sum of atomic charges =     0.000000

 -----------------------------------------------------------------
                    Cartesian Multipole Moments
 -----------------------------------------------------------------
    Charge (ESU x 10^10)
                 0.0000
    Dipole Moment (Debye)
         X      -0.0000      Y      -0.0000      Z      -0.7294
       Tot       0.7294
    Quadrupole Moments (Debye-Ang)
        XX     -16.3792     XY      -0.0000     YY     -11.7757
        XZ      -0.0000     YZ      -0.0000     ZZ     -11.5712
    Octopole Moments (Debye-Ang^2)
       XXX      -0.0000    XXY      -0.0000    XYY       0.0000
       YYY      -0.0000    XXZ       0.4575    XYZ      -0.0000
       YYZ       1.4213    XZZ      -0.0000    YZZ      -0.0000
       ZZZ       1.8917
    Hexadecapole Moments (Debye-Ang^3)
      XXXX     -25.7545   XXXY      -0.0000   XXYY      -8.1591
      XYYY       0.0000   YYYY     -20.4977   XXXZ      -0.0000
      XXYZ      -0.0000   XYYZ      -0.0000   YYYZ      -0.0000
      XXZZ     -18.6061   XYZZ       0.0000   YYZZ     -14.5399
      XZZZ       0.0000   YZZZ      -0.0000   ZZZZ     -75.7672
 -----------------------------------------------------------------
Archival summary:
1\1\n0092.mhg0\SP\ProcedureUnspecified\BasisUnspecified\113\yhljason\SatOct313:59:102020SatOct313:59:102020\0\\#,ProcedureUnspecified,BasisUnspecified,\\0,1\C\H,1,1.08246\H,1,1.08246,2,115.865\B,1,1.3826,2,122.068,3,-180,0\H,4,1.17,1,180,2,0,0\\\@

 Total job time:  94.45s(wall), 753.69s(cpu) 
 Sat Oct  3 13:59:10 2020

        *************************************************************
        *                                                           *
        *  Thank you very much for using Q-Chem.  Have a nice day.  *
        *                                                           *
        *************************************************************


 
User input: 6 of 8 
 
Q-Chem Developer Version!
                  Welcome to Q-Chem
     A Quantum Leap Into The Future Of Chemistry


 Q-Chem 5.1, Q-Chem, Inc., Pleasanton, CA (2018)

 Yihan Shao,  Zhengting Gan,  E. Epifanovsky,  A. T. B. Gilbert,  M. Wormit,  
 J. Kussmann,  A. W. Lange,  A. Behn,  Jia Deng,  Xintian Feng,  D. Ghosh,  
 M. Goldey,  P. R. Horn,  L. D. Jacobson,  I. Kaliman,  T. Kus,  A. Landau,  
 Jie Liu,  E. I. Proynov,  R. M. Richard,  R. P. Steele,  E. J. Sundstrom,  
 H. L. Woodcock III,  P. M. Zimmerman,  D. Zuev,  B. Albrecht,  E. Alguire,  
 S. A. Baeppler,  D. Barton,  Z. Benda,  Y. A. Bernard,  E. J. Berquist,  
 K. B. Bravaya,  H. Burton,  D. Casanova,  Chun-Min Chang,  Yunqing Chen,  
 A. Chien,  K. D. Closser,  M. P. Coons,  S. Coriani,  S. Dasgupta,  
 A. L. Dempwolff,  M. Diedenhofen,  Hainam Do,  R. G. Edgar,  Po-Tung Fang,  
 S. Faraji,  S. Fatehi,  Qingguo Feng,  K. D. Fenk,  J. Fosso-Tande,  
 Qinghui Ge,  A. Ghysels,  G. Gidofalvi,  J. Gomes,  J. Gonthier,  A. Gunina,  
 D. Hait,  M. W. D. Hanson-Heine,  P. H. P. Harbach,  A. W. Hauser,  
 J. E. Herr,  E. G. Hohenstein,  Z. C. Holden,  Kerwin Hui,  B. C. Huynh,  
 T.-C. Jagau,  Hyunjun Ji,  B. Kaduk,  K. Khistyaev,  Jaehoon Kim,  
 P. Klunzinger,  K. Koh,  D. Kosenkov,  L. Koulias,  T. Kowalczyk,  
 C. M. Krauter,  A. Kunitsa,  Ka Un Lao,  A. Laurent,  K. V. Lawler,  
 Joonho Lee,  D. Lefrancois,  S. Lehtola,  D. S. Levine,  Yi-Pei Li,  
 You-Sheng Lin,  Fenglai Liu,  E. Livshits,  A. Luenser,  P. Manohar,  
 E. Mansoor,  S. F. Manzer,  Shan-Ping Mao,  Yuezhi Mao,  N. Mardirossian,  
 A. V. Marenich,  T. Markovich,  L. A. Martinez-Martinez,  S. A. Maurer,  
 N. J. Mayhall,  S. C. McKenzie,  J.-M. Mewes,  A. F. Morrison,  
 J. W. Mullinax,  K. Nanda,  T. S. Nguyen-Beck,  R. Olivares-Amaya,  
 J. A. Parkhill,  T. M. Perrine,  F. Plasser,  P. Pokhilko,  S. Prager,  
 A. Prociuk,  E. Ramos,  D. R. Rehn,  F. Rob,  M. Schneider,  N. Sergueev,  
 S. M. Sharada,  S. Sharma,  D. W. Small,  T. Stauch,  T. Stein,  
 Yu-Chuan Su,  A. J. W. Thom,  A. Tkatchenko,  T. Tsuchimochi,  N. M. Tubman,  
 L. Vogt,  M. L. Vidal,  O. Vydrov,  M. A. Watson,  J. Wenzel,  
 M. de Wergifosse,  T. A. Wesolowski,  A. White,  J. Witte,  A. Yamada,  
 Jun Yang,  K. Yao,  S. Yeganeh,  S. R. Yost,  Zhi-Qiang You,  A. Zech,  
 Igor Ying Zhang,  Xing Zhang,  Yan Zhao,  Ying Zhu,  B. R. Brooks,  
 G. K. L. Chan,  C. J. Cramer,  M. S. Gordon,  W. J. Hehre,  A. Klamt,  
 M. W. Schmidt,  C. D. Sherrill,  D. G. Truhlar,  A. Aspuru-Guzik,  R. Baer,  
 A. T. Bell,  N. A. Besley,  Jeng-Da Chai,  A. E. DePrince, III,  
 R. A. DiStasio Jr.,  A. Dreuw,  B. D. Dunietz,  T. R. Furlani,  
 Chao-Ping Hsu,  Yousung Jung,  Jing Kong,  D. S. Lambrecht,  WanZhen Liang,  
 C. Ochsenfeld,  V. A. Rassolov,  L. V. Slipchenko,  J. E. Subotnik,  
 T. Van Voorhis,  J. M. Herbert,  A. I. Krylov,  P. M. W. Gill,  M. Head-Gordon

 Contributors to earlier versions of Q-Chem not listed above: 
 R. D. Adamson,  B. Austin,  J. Baker,  G. J. O. Beran,  K. Brandhorst,  
 S. T. Brown,  E. F. C. Byrd,  A. K. Chakraborty,  C.-L. Cheng,  
 Siu Hung Chien,  D. M. Chipman,  D. L. Crittenden,  H. Dachsel,  
 R. J. Doerksen,  A. D. Dutoi,  L. Fusti-Molnar,  W. A. Goddard III,  
 A. Golubeva-Zadorozhnaya,  S. R. Gwaltney,  G. Hawkins,  A. Heyden,  
 S. Hirata,  G. Kedziora,  F. J. Keil,  C. Kelley,  Jihan Kim,  R. A. King,  
 R. Z. Khaliullin,  P. P. Korambath,  W. Kurlancheek,  A. M. Lee,  M. S. Lee,  
 S. V. Levchenko,  Ching Yeh Lin,  D. Liotard,  R. C. Lochan,  I. Lotan,  
 P. E. Maslen,  N. Nair,  D. P. O'Neill,  D. Neuhauser,  E. Neuscamman,  
 C. M. Oana,  R. Olson,  B. Peters,  R. Peverati,  P. A. Pieniazek,  
 Y. M. Rhee,  J. Ritchie,  M. A. Rohrdanz,  E. Rosta,  N. J. Russ,  
 H. F. Schaefer III,  N. E. Schultz,  N. Shenvi,  A. C. Simmonett,  A. Sodt,  
 D. Stuck,  K. S. Thanthiriwatte,  V. Vanovschi,  Tao Wang,  A. Warshel,  
 C. F. Williams,  Q. Wu,  X. Xu,  W. Zhang

 Please cite Q-Chem as follows:
 Y. Shao et al., Mol. Phys. 113, 184-215 (2015)
 DOI: 10.1080/00268976.2014.952696

 Q-Chem 5.1.1 for Intel X86 EM64T Linux

 Parts of Q-Chem use Armadillo 8.300.2 (Tropical Shenanigans).
 http://arma.sourceforge.net/

 Q-Chem begins on Sat Oct  3 13:59:10 2020  

Host: n0092.mhg0
0

     Scratch files written to /local/scratch/users/yhljason/CH2BH_PTPSS-D3_aug-cc-pcVTZ.inp20201003135019//
The previous job contains 0 fragments, simply inherited here
Input Ideriv = 0
Curr. Ideriv = -1
Max.  Ideriv = 0
Analytic post-HF gradients are not available with non-HF exchange
Input Ideriv = 0
Curr. Ideriv = 0
Max.  Ideriv = 0

Checking the input file for inconsistencies... 	...done.

--------------------------------------------------------------
User input:
--------------------------------------------------------------
$molecule
read
$end

$rem

jobtype sp
method PTPSS-D3
xc_grid 000099000590
basis aug-cc-pcVTZ
max_scf_cycles 200
thresh 14
scf_convergence 8
mem_total 128000
cc_memory 96000
cc_backend xm
mem_static 1500
symmetry false
sym_ignore true
scf_guess read
unrestricted false
scf_algorithm gdm
n_frozen_core 0
$end

$multipole_field
YY -0.0001
$end


--------------------------------------------------------------
 Adding empirical dispersion correction 
 ----------------------------------------------------------------
 Doing -D3(0) with
 s6  =   0.75000
 s8  =   0.87900
 rs6 =   1.54100
 rs8 =   1.00000
 -D3 energy without 3body term =     -0.0002713263 hartrees
 ----------------------------------------------------------------
             Standard Nuclear Orientation (Angstroms)
    I     Atom           X                Y                Z
 ----------------------------------------------------------------
    1      C       0.0000000000     0.0000000000     0.5940000000
    2      B       0.0000000000     0.0000000000    -0.7886000000
    3      H       0.0000000000     0.9173000000     1.1687000000
    4      H       0.0000000000    -0.9173000000     1.1687000000
    5      H       0.0000000000     0.0000000000    -1.9586000000
 ----------------------------------------------------------------
 Nuclear Repulsion Energy =    23.9149089377 hartrees
 There are        7 alpha and        7 beta electrons
 Requested basis set is aug-cc-pCVTZ
 There are 65 shells and 187 basis functions

 Total QAlloc Memory Limit 128000 MB
 Mega-Array Size      1467 MB
 MEM_STATIC part      1500 MB

                       Distance Matrix (Angstroms)
             C (  1)   B (  2)   H (  3)   H (  4)
   B (  2)  1.382600
   H (  3)  1.082460  2.161588
   H (  4)  1.082460  2.161588  1.834600
   H (  5)  2.552600  1.170000  3.259056  3.259056
 
 Applying Cartesian multipole field
    Component          Value
    ---------          -----
     (0,2,0)       -1.00000E-04
 Nucleus-field energy     =    -0.0006009669 hartrees
 A cutoff of  1.0D-14 yielded   2137 shell pairs
 There are     17781 function pairs (     23142 Cartesian)
 
 -------------------------------------------------------
 OpenMP Integral Computing Module                       
 Release: version 1.0, May 2013, Q-Chem Inc. Pittsburgh 
 -------------------------------------------------------
 Integral Job Info:
 Integral job number is                      11
 Integral operator is                         1
 short-range coefficients                     0
 long-range coefficients              100000000
 Omega coefficients                           0
 if combine SR and LR in K                    0
 Integral screening is                        0
 Integral computing path is                   2
 max size of driver memory is            800000
 size of driver memory is                776718
 size of scratch memory is              6691272
 max col of scratch BK array              10000
 max len of scratch array in speh3          662
 max len of scratch index in speh4           32
 max int batch size is                      520
 min int batch size is                       52
 fixed nKL is                                52
 max L of basis functions is                  3
 order of int derivative is                   0
 number of shells is                         65
 number of basis is                         213
 number of cartesian basis is               213
 number of contracted shell pairs          2137
 number of primitive shell pairs           5026
 maxK2 (contraction) of shell pair           64
 max number of K2 of shell pair               1
 max number of CS2 of shell pair            369
 max number of PS2 of shell pair            576
 mem total for path MDJ                  570992
 -------------------------------------------------------
 Smallest overlap matrix eigenvalue = 4.46E-05
 Guess MOs from SCF MO coefficient file

 -----------------------------------------------------------------------
  General SCF calculation program by
  Eric Jon Sundstrom, Paul Horn, Yuezhi Mao, Dmitri Zuev, Alec White,
  David Stuck, Shaama M.S., Shane Yost, Joonho Lee, David Small,
  Daniel Levine, Susi Lehtola, Hugh Burton, Evgeny Epifanovsky
 -----------------------------------------------------------------------
 Exchange:     0.5000 Hartree-Fock + 0.5000 PTPSS-D3
 Correlation:  0.6250 PTPSS-D3
 Using Euler-Maclaurin-Lebedev (99,590) quadrature formula
 Dispersion:   Grimme D3
 using 8 threads for integral computing
 -------------------------------------------------------
 OpenMP Integral computing Module                
 Release: version 2.0, May 2017, Q-Chem Inc. Pleasanton 
 -------------------------------------------------------
 -------------------------------------------------------
 OpenMP BLAS3 based DFT computing Module                
 Release: version 1.0, May 2013, Q-Chem Inc. Pittsburgh 
 -------------------------------------------------------
 A restricted SCF calculation will be
 performed using GDM
 SCF converges when RMS gradient is below 1.0e-08
 ---------------------------------------
  Cycle       Energy        RMS Gradient
 ---------------------------------------
    1     -64.5393336450      5.31e-04   Normal BFGS step
    2     -64.5393356421      2.03e-04   Normal BFGS step
    3     -64.5393358905      1.51e-04   Normal BFGS step
    4     -64.5393359603      3.84e-05   Normal BFGS step
    5     -64.5393359642      1.02e-05   Normal BFGS step
    6     -64.5393359649      6.65e-07   Normal BFGS step
    7     -64.5393359650      2.54e-07   Normal BFGS step
    8     -64.5393359650      6.88e-08   Normal BFGS step
    9     -64.5393359650      3.70e-09  Convergence criterion met
 ---------------------------------------
 SCF time:   CPU 485.57s  wall 61.00s 
 SCF   energy in the final basis set =      -64.5393359650
 Total energy in the final basis set =      -64.5393359650
 
 Components of the MP2 correlation energy:
        aaaa  correlation energy =         0.0000000000 au
        abab  correlation energy =        -0.1312304465 au
        bbbb  correlation energy =         0.0000000000 au
        non-Brillouin singles    =        -0.0000000000 au

 Total  MP2   correlation energy =                    -0.13123045 au
        MP2         total energy =                   -64.67056641 au
 
 --------------------------------------------------------------
 
                    Orbital Energies (a.u.)
 --------------------------------------------------------------
 
 Alpha MOs
 -- Occupied --
-10.564  -7.109  -0.777  -0.545  -0.477  -0.459  -0.277
 -- Virtual --
 -0.009   0.020   0.032   0.035   0.040   0.066   0.070   0.071
  0.081   0.108   0.109   0.128   0.136   0.144   0.145   0.177
  0.188   0.214   0.222   0.250   0.254   0.275   0.277   0.278
  0.309   0.312   0.320   0.344   0.359   0.361   0.372   0.383
  0.385   0.398   0.421   0.454   0.457   0.528   0.565   0.592
  0.604   0.627   0.628   0.630   0.662   0.695   0.703   0.723
  0.760   0.767   0.772   0.773   0.795   0.816   0.830   0.852
  0.853   0.895   0.940   0.940   0.973   1.000   1.011   1.021
  1.022   1.060   1.081   1.106   1.157   1.170   1.187   1.249
  1.264   1.265   1.278   1.363   1.400   1.445   1.451   1.505
  1.541   1.547   1.626   1.630   1.630   1.630   1.650   1.717
  1.718   1.736   1.740   1.834   1.886   1.967   1.971   2.005
  2.074   2.127   2.149   2.178   2.221   2.282   2.486   2.489
  2.516   2.664   2.670   2.721   2.838   2.952   2.980   3.070
  3.081   3.094   3.159   3.384   3.434   3.481   3.595   3.599
  3.638   3.647   3.658   3.811   3.897   3.934   3.959   3.995
  4.049   4.068   4.091   4.279   4.298   4.410   4.462   4.494
  4.569   4.625   4.636   4.661   4.678   4.908   4.978   5.101
  5.145   5.189   5.197   5.356   5.513   5.675   5.945   6.002
  6.375   6.490  10.403  10.637  11.785  12.149  15.486  16.353
 16.426  17.277  36.723  36.730  36.803  36.836  37.007  41.029
 41.053  41.221  41.243  41.283  55.562  55.708  56.758  60.417
 80.639  81.280  81.304  86.696
 --------------------------------------------------------------
 
          Ground-State Mulliken Net Atomic Charges

     Atom                 Charge (a.u.)
  ----------------------------------------
      1 C                    -1.115856
      2 B                    -0.073671
      3 H                     0.559163
      4 H                     0.559163
      5 H                     0.071201
  ----------------------------------------
  Sum of atomic charges =     0.000000

 -----------------------------------------------------------------
                    Cartesian Multipole Moments
 -----------------------------------------------------------------
    Charge (ESU x 10^10)
                 0.0000
    Dipole Moment (Debye)
         X       0.0000      Y       0.0000      Z      -0.7248
       Tot       0.7248
    Quadrupole Moments (Debye-Ang)
        XX     -16.3725     XY      -0.0000     YY     -11.7446
        XZ      -0.0000     YZ       0.0000     ZZ     -11.5695
    Octopole Moments (Debye-Ang^2)
       XXX       0.0000    XXY      -0.0000    XYY       0.0000
       YYY      -0.0000    XXZ       0.4596    XYZ       0.0000
       YYZ       1.4369    XZZ       0.0000    YZZ      -0.0000
       ZZZ       1.9083
    Hexadecapole Moments (Debye-Ang^3)
      XXXX     -25.7056   XXXY      -0.0000   XXYY      -8.1279
      XYYY       0.0000   YYYY     -20.3683   XXXZ      -0.0000
      XXYZ      -0.0000   XYYZ       0.0000   YYYZ       0.0000
      XXZZ     -18.5918   XYZZ       0.0000   YYZZ     -14.4881
      XZZZ      -0.0000   YZZZ       0.0000   ZZZZ     -75.7533
 -----------------------------------------------------------------
Archival summary:
1\1\n0092.mhg0\SP\ProcedureUnspecified\BasisUnspecified\113\yhljason\SatOct314:00:442020SatOct314:00:442020\0\\#,ProcedureUnspecified,BasisUnspecified,\\0,1\C\H,1,1.08246\H,1,1.08246,2,115.865\B,1,1.3826,2,122.068,3,-180,0\H,4,1.17,1,180,2,0,0\\\@

 Total job time:  94.23s(wall), 752.10s(cpu) 
 Sat Oct  3 14:00:44 2020

        *************************************************************
        *                                                           *
        *  Thank you very much for using Q-Chem.  Have a nice day.  *
        *                                                           *
        *************************************************************


 
User input: 7 of 8 
 
Q-Chem Developer Version!
                  Welcome to Q-Chem
     A Quantum Leap Into The Future Of Chemistry


 Q-Chem 5.1, Q-Chem, Inc., Pleasanton, CA (2018)

 Yihan Shao,  Zhengting Gan,  E. Epifanovsky,  A. T. B. Gilbert,  M. Wormit,  
 J. Kussmann,  A. W. Lange,  A. Behn,  Jia Deng,  Xintian Feng,  D. Ghosh,  
 M. Goldey,  P. R. Horn,  L. D. Jacobson,  I. Kaliman,  T. Kus,  A. Landau,  
 Jie Liu,  E. I. Proynov,  R. M. Richard,  R. P. Steele,  E. J. Sundstrom,  
 H. L. Woodcock III,  P. M. Zimmerman,  D. Zuev,  B. Albrecht,  E. Alguire,  
 S. A. Baeppler,  D. Barton,  Z. Benda,  Y. A. Bernard,  E. J. Berquist,  
 K. B. Bravaya,  H. Burton,  D. Casanova,  Chun-Min Chang,  Yunqing Chen,  
 A. Chien,  K. D. Closser,  M. P. Coons,  S. Coriani,  S. Dasgupta,  
 A. L. Dempwolff,  M. Diedenhofen,  Hainam Do,  R. G. Edgar,  Po-Tung Fang,  
 S. Faraji,  S. Fatehi,  Qingguo Feng,  K. D. Fenk,  J. Fosso-Tande,  
 Qinghui Ge,  A. Ghysels,  G. Gidofalvi,  J. Gomes,  J. Gonthier,  A. Gunina,  
 D. Hait,  M. W. D. Hanson-Heine,  P. H. P. Harbach,  A. W. Hauser,  
 J. E. Herr,  E. G. Hohenstein,  Z. C. Holden,  Kerwin Hui,  B. C. Huynh,  
 T.-C. Jagau,  Hyunjun Ji,  B. Kaduk,  K. Khistyaev,  Jaehoon Kim,  
 P. Klunzinger,  K. Koh,  D. Kosenkov,  L. Koulias,  T. Kowalczyk,  
 C. M. Krauter,  A. Kunitsa,  Ka Un Lao,  A. Laurent,  K. V. Lawler,  
 Joonho Lee,  D. Lefrancois,  S. Lehtola,  D. S. Levine,  Yi-Pei Li,  
 You-Sheng Lin,  Fenglai Liu,  E. Livshits,  A. Luenser,  P. Manohar,  
 E. Mansoor,  S. F. Manzer,  Shan-Ping Mao,  Yuezhi Mao,  N. Mardirossian,  
 A. V. Marenich,  T. Markovich,  L. A. Martinez-Martinez,  S. A. Maurer,  
 N. J. Mayhall,  S. C. McKenzie,  J.-M. Mewes,  A. F. Morrison,  
 J. W. Mullinax,  K. Nanda,  T. S. Nguyen-Beck,  R. Olivares-Amaya,  
 J. A. Parkhill,  T. M. Perrine,  F. Plasser,  P. Pokhilko,  S. Prager,  
 A. Prociuk,  E. Ramos,  D. R. Rehn,  F. Rob,  M. Schneider,  N. Sergueev,  
 S. M. Sharada,  S. Sharma,  D. W. Small,  T. Stauch,  T. Stein,  
 Yu-Chuan Su,  A. J. W. Thom,  A. Tkatchenko,  T. Tsuchimochi,  N. M. Tubman,  
 L. Vogt,  M. L. Vidal,  O. Vydrov,  M. A. Watson,  J. Wenzel,  
 M. de Wergifosse,  T. A. Wesolowski,  A. White,  J. Witte,  A. Yamada,  
 Jun Yang,  K. Yao,  S. Yeganeh,  S. R. Yost,  Zhi-Qiang You,  A. Zech,  
 Igor Ying Zhang,  Xing Zhang,  Yan Zhao,  Ying Zhu,  B. R. Brooks,  
 G. K. L. Chan,  C. J. Cramer,  M. S. Gordon,  W. J. Hehre,  A. Klamt,  
[...]
 ---------------------------------------
 SCF time:   CPU 485.14s  wall 60.00s 
 SCF   energy in the final basis set =      -64.5410719625
 Total energy in the final basis set =      -64.5410719625
 
 Components of the MP2 correlation energy:
        aaaa  correlation energy =         0.0000000000 au
        abab  correlation energy =        -0.1312377355 au
        bbbb  correlation energy =         0.0000000000 au
        non-Brillouin singles    =        -0.0000000000 au

 Total  MP2   correlation energy =                    -0.13123774 au
        MP2         total energy =                   -64.67230970 au
 
 --------------------------------------------------------------
 
                    Orbital Energies (a.u.)
 --------------------------------------------------------------
 
 Alpha MOs
 -- Occupied --
-10.565  -7.110  -0.778  -0.547  -0.478  -0.460  -0.277
 -- Virtual --
 -0.011   0.013   0.025   0.032   0.032   0.063   0.064   0.064
  0.074   0.102   0.106   0.122   0.129   0.141   0.142   0.173
  0.184   0.211   0.218   0.248   0.250   0.273   0.274   0.275
  0.305   0.309   0.316   0.340   0.356   0.358   0.370   0.379
  0.383   0.395   0.418   0.452   0.454   0.526   0.562   0.590
  0.603   0.626   0.626   0.628   0.661   0.692   0.700   0.721
  0.758   0.764   0.771   0.771   0.794   0.814   0.828   0.850
  0.852   0.893   0.937   0.938   0.971   0.998   1.009   1.018
  1.021   1.058   1.079   1.104   1.155   1.168   1.185   1.247
  1.262   1.263   1.276   1.362   1.399   1.443   1.450   1.503
  1.540   1.545   1.624   1.628   1.628   1.628   1.649   1.716
  1.717   1.735   1.738   1.833   1.884   1.966   1.969   2.004
  2.073   2.126   2.147   2.177   2.220   2.281   2.485   2.488
  2.515   2.663   2.669   2.720   2.837   2.950   2.979   3.069
  3.080   3.093   3.158   3.383   3.433   3.480   3.594   3.598
  3.637   3.646   3.657   3.810   3.896   3.933   3.958   3.994
  4.048   4.066   4.090   4.278   4.296   4.409   4.461   4.493
  4.568   4.624   4.635   4.660   4.677   4.907   4.977   5.100
  5.144   5.188   5.196   5.355   5.512   5.674   5.944   6.001
  6.374   6.489  10.401  10.636  11.784  12.148  15.485  16.352
 16.425  17.276  36.722  36.729  36.801  36.835  37.005  41.028
 41.052  41.220  41.241  41.282  55.561  55.707  56.757  60.416
 80.638  81.279  81.303  86.695
 --------------------------------------------------------------
 
          Ground-State Mulliken Net Atomic Charges

     Atom                 Charge (a.u.)
  ----------------------------------------
      1 C                    -1.115911
      2 B                    -0.072361
      3 H                     0.558939
      4 H                     0.558939
      5 H                     0.070393
  ----------------------------------------
  Sum of atomic charges =     0.000000

 -----------------------------------------------------------------
                    Cartesian Multipole Moments
 -----------------------------------------------------------------
    Charge (ESU x 10^10)
                 0.0000
    Dipole Moment (Debye)
         X       0.0000      Y       0.0000      Z      -0.7217
       Tot       0.7217
    Quadrupole Moments (Debye-Ang)
        XX     -16.3759     XY      -0.0000     YY     -11.7610
        XZ       0.0000     YZ       0.0000     ZZ     -11.6245
    Octopole Moments (Debye-Ang^2)
       XXX       0.0000    XXY      -0.0000    XYY      -0.0000
       YYY      -0.0000    XXZ       0.4632    XYZ       0.0000
       YYZ       1.4271    XZZ      -0.0000    YZZ       0.0000
       ZZZ       1.9702
    Hexadecapole Moments (Debye-Ang^3)
      XXXX     -25.7334   XXXY      -0.0000   XXYY      -8.1449
      XYYY      -0.0000   YYYY     -20.4371   XXXZ       0.0000
      XXYZ      -0.0000   XYYZ      -0.0000   YYYZ      -0.0000
      XXZZ     -18.6363   XYZZ       0.0000   YYZZ     -14.5504
      XZZZ       0.0000   YZZZ       0.0000   ZZZZ     -76.1665
 -----------------------------------------------------------------
Archival summary:
1\1\n0092.mhg0\SP\ProcedureUnspecified\BasisUnspecified\113\yhljason\SatOct314:02:182020SatOct314:02:182020\0\\#,ProcedureUnspecified,BasisUnspecified,\\0,1\C\H,1,1.08246\H,1,1.08246,2,115.865\B,1,1.3826,2,122.068,3,-180,0\H,4,1.17,1,180,2,0,0\\\@

 Total job time:  94.36s(wall), 753.26s(cpu) 
 Sat Oct  3 14:02:18 2020

        *************************************************************
        *                                                           *
        *  Thank you very much for using Q-Chem.  Have a nice day.  *
        *                                                           *
        *************************************************************


 
User input: 8 of 8 
 
Q-Chem Developer Version!
                  Welcome to Q-Chem
     A Quantum Leap Into The Future Of Chemistry


 Q-Chem 5.1, Q-Chem, Inc., Pleasanton, CA (2018)

 Yihan Shao,  Zhengting Gan,  E. Epifanovsky,  A. T. B. Gilbert,  M. Wormit,  
 J. Kussmann,  A. W. Lange,  A. Behn,  Jia Deng,  Xintian Feng,  D. Ghosh,  
 M. Goldey,  P. R. Horn,  L. D. Jacobson,  I. Kaliman,  T. Kus,  A. Landau,  
 Jie Liu,  E. I. Proynov,  R. M. Richard,  R. P. Steele,  E. J. Sundstrom,  
 H. L. Woodcock III,  P. M. Zimmerman,  D. Zuev,  B. Albrecht,  E. Alguire,  
 S. A. Baeppler,  D. Barton,  Z. Benda,  Y. A. Bernard,  E. J. Berquist,  
 K. B. Bravaya,  H. Burton,  D. Casanova,  Chun-Min Chang,  Yunqing Chen,  
 A. Chien,  K. D. Closser,  M. P. Coons,  S. Coriani,  S. Dasgupta,  
 A. L. Dempwolff,  M. Diedenhofen,  Hainam Do,  R. G. Edgar,  Po-Tung Fang,  
 S. Faraji,  S. Fatehi,  Qingguo Feng,  K. D. Fenk,  J. Fosso-Tande,  
 Qinghui Ge,  A. Ghysels,  G. Gidofalvi,  J. Gomes,  J. Gonthier,  A. Gunina,  
 D. Hait,  M. W. D. Hanson-Heine,  P. H. P. Harbach,  A. W. Hauser,  
 J. E. Herr,  E. G. Hohenstein,  Z. C. Holden,  Kerwin Hui,  B. C. Huynh,  
 T.-C. Jagau,  Hyunjun Ji,  B. Kaduk,  K. Khistyaev,  Jaehoon Kim,  
 P. Klunzinger,  K. Koh,  D. Kosenkov,  L. Koulias,  T. Kowalczyk,  
 C. M. Krauter,  A. Kunitsa,  Ka Un Lao,  A. Laurent,  K. V. Lawler,  
 Joonho Lee,  D. Lefrancois,  S. Lehtola,  D. S. Levine,  Yi-Pei Li,  
 You-Sheng Lin,  Fenglai Liu,  E. Livshits,  A. Luenser,  P. Manohar,  
 E. Mansoor,  S. F. Manzer,  Shan-Ping Mao,  Yuezhi Mao,  N. Mardirossian,  
 A. V. Marenich,  T. Markovich,  L. A. Martinez-Martinez,  S. A. Maurer,  
 N. J. Mayhall,  S. C. McKenzie,  J.-M. Mewes,  A. F. Morrison,  
 J. W. Mullinax,  K. Nanda,  T. S. Nguyen-Beck,  R. Olivares-Amaya,  
 J. A. Parkhill,  T. M. Perrine,  F. Plasser,  P. Pokhilko,  S. Prager,  
 A. Prociuk,  E. Ramos,  D. R. Rehn,  F. Rob,  M. Schneider,  N. Sergueev,  
 S. M. Sharada,  S. Sharma,  D. W. Small,  T. Stauch,  T. Stein,  
 Yu-Chuan Su,  A. J. W. Thom,  A. Tkatchenko,  T. Tsuchimochi,  N. M. Tubman,  
 L. Vogt,  M. L. Vidal,  O. Vydrov,  M. A. Watson,  J. Wenzel,  
 M. de Wergifosse,  T. A. Wesolowski,  A. White,  J. Witte,  A. Yamada,  
 Jun Yang,  K. Yao,  S. Yeganeh,  S. R. Yost,  Zhi-Qiang You,  A. Zech,  
 Igor Ying Zhang,  Xing Zhang,  Yan Zhao,  Ying Zhu,  B. R. Brooks,  
 G. K. L. Chan,  C. J. Cramer,  M. S. Gordon,  W. J. Hehre,  A. Klamt,  
 M. W. Schmidt,  C. D. Sherrill,  D. G. Truhlar,  A. Aspuru-Guzik,  R. Baer,  
 A. T. Bell,  N. A. Besley,  Jeng-Da Chai,  A. E. DePrince, III,  
 R. A. DiStasio Jr.,  A. Dreuw,  B. D. Dunietz,  T. R. Furlani,  
 Chao-Ping Hsu,  Yousung Jung,  Jing Kong,  D. S. Lambrecht,  WanZhen Liang,  
 C. Ochsenfeld,  V. A. Rassolov,  L. V. Slipchenko,  J. E. Subotnik,  
 T. Van Voorhis,  J. M. Herbert,  A. I. Krylov,  P. M. W. Gill,  M. Head-Gordon

 Contributors to earlier versions of Q-Chem not listed above: 
 R. D. Adamson,  B. Austin,  J. Baker,  G. J. O. Beran,  K. Brandhorst,  
 S. T. Brown,  E. F. C. Byrd,  A. K. Chakraborty,  C.-L. Cheng,  
 Siu Hung Chien,  D. M. Chipman,  D. L. Crittenden,  H. Dachsel,  
 R. J. Doerksen,  A. D. Dutoi,  L. Fusti-Molnar,  W. A. Goddard III,  
 A. Golubeva-Zadorozhnaya,  S. R. Gwaltney,  G. Hawkins,  A. Heyden,  
 S. Hirata,  G. Kedziora,  F. J. Keil,  C. Kelley,  Jihan Kim,  R. A. King,  
 R. Z. Khaliullin,  P. P. Korambath,  W. Kurlancheek,  A. M. Lee,  M. S. Lee,  
 S. V. Levchenko,  Ching Yeh Lin,  D. Liotard,  R. C. Lochan,  I. Lotan,  
 P. E. Maslen,  N. Nair,  D. P. O'Neill,  D. Neuhauser,  E. Neuscamman,  
 C. M. Oana,  R. Olson,  B. Peters,  R. Peverati,  P. A. Pieniazek,  
 Y. M. Rhee,  J. Ritchie,  M. A. Rohrdanz,  E. Rosta,  N. J. Russ,  
 H. F. Schaefer III,  N. E. Schultz,  N. Shenvi,  A. C. Simmonett,  A. Sodt,  
 D. Stuck,  K. S. Thanthiriwatte,  V. Vanovschi,  Tao Wang,  A. Warshel,  
 C. F. Williams,  Q. Wu,  X. Xu,  W. Zhang

 Please cite Q-Chem as follows:
 Y. Shao et al., Mol. Phys. 113, 184-215 (2015)
 DOI: 10.1080/00268976.2014.952696

 Q-Chem 5.1.1 for Intel X86 EM64T Linux

 Parts of Q-Chem use Armadillo 8.300.2 (Tropical Shenanigans).
 http://arma.sourceforge.net/

 Q-Chem begins on Sat Oct  3 14:02:19 2020  

Host: n0092.mhg0
0

     Scratch files written to /local/scratch/users/yhljason/CH2BH_PTPSS-D3_aug-cc-pcVTZ.inp20201003135019//
The previous job contains 0 fragments, simply inherited here
Input Ideriv = 0
Curr. Ideriv = -1
Max.  Ideriv = 0
Analytic post-HF gradients are not available with non-HF exchange
Input Ideriv = 0
Curr. Ideriv = 0
Max.  Ideriv = 0

Checking the input file for inconsistencies... 	...done.

--------------------------------------------------------------
User input:
--------------------------------------------------------------
$molecule
read
$end

$rem

jobtype sp
method PTPSS-D3
xc_grid 000099000590
basis aug-cc-pcVTZ
max_scf_cycles 200
thresh 14
scf_convergence 8
mem_total 128000
cc_memory 96000
cc_backend xm
mem_static 1500
symmetry false
sym_ignore true
scf_guess read
unrestricted false
scf_algorithm gdm
n_frozen_core 0
$end

$multipole_field
ZZ -0.0001
$end

--------------------------------------------------------------
 Adding empirical dispersion correction 
 ----------------------------------------------------------------
 Doing -D3(0) with
 s6  =   0.75000
 s8  =   0.87900
 rs6 =   1.54100
 rs8 =   1.00000
 -D3 energy without 3body term =     -0.0002713263 hartrees
 ----------------------------------------------------------------
             Standard Nuclear Orientation (Angstroms)
    I     Atom           X                Y                Z
 ----------------------------------------------------------------
    1      C       0.0000000000     0.0000000000     0.5940000000
    2      B       0.0000000000     0.0000000000    -0.7886000000
    3      H       0.0000000000     0.9173000000     1.1687000000
    4      H       0.0000000000    -0.9173000000     1.1687000000
    5      H       0.0000000000     0.0000000000    -1.9586000000
 ----------------------------------------------------------------
 Nuclear Repulsion Energy =    23.9149089377 hartrees
 There are        7 alpha and        7 beta electrons
 Requested basis set is aug-cc-pCVTZ
 There are 65 shells and 187 basis functions

 Total QAlloc Memory Limit 128000 MB
 Mega-Array Size      1467 MB
 MEM_STATIC part      1500 MB

                       Distance Matrix (Angstroms)
             C (  1)   B (  2)   H (  3)   H (  4)
   B (  2)  1.382600
   H (  3)  1.082460  2.161588
   H (  4)  1.082460  2.161588  1.834600
   H (  5)  2.552600  1.170000  3.259056  3.259056
 
 Applying Cartesian multipole field
    Component          Value
    ---------          -----
     (0,0,2)       -1.00000E-04
 Nucleus-field energy     =    -0.0042118207 hartrees
 A cutoff of  1.0D-14 yielded   2137 shell pairs
 There are     17781 function pairs (     23142 Cartesian)
 
 -------------------------------------------------------
 OpenMP Integral Computing Module                       
 Release: version 1.0, May 2013, Q-Chem Inc. Pittsburgh 
 -------------------------------------------------------
 Integral Job Info:
 Integral job number is                      11
 Integral operator is                         1
 short-range coefficients                     0
 long-range coefficients              100000000
 Omega coefficients                           0
 if combine SR and LR in K                    0
 Integral screening is                        0
 Integral computing path is                   2
 max size of driver memory is            800000
 size of driver memory is                776718
 size of scratch memory is              6691272
 max col of scratch BK array              10000
 max len of scratch array in speh3          662
 max len of scratch index in speh4           32
 max int batch size is                      520
 min int batch size is                       52
 fixed nKL is                                52
 max L of basis functions is                  3
 order of int derivative is                   0
 number of shells is                         65
 number of basis is                         213
 number of cartesian basis is               213
 number of contracted shell pairs          2137
 number of primitive shell pairs           5026
 maxK2 (contraction) of shell pair           64
 max number of K2 of shell pair               1
 max number of CS2 of shell pair            369
 max number of PS2 of shell pair            576
 mem total for path MDJ                  570992
 -------------------------------------------------------
 Smallest overlap matrix eigenvalue = 4.46E-05
 Guess MOs from SCF MO coefficient file

 -----------------------------------------------------------------------
  General SCF calculation program by
  Eric Jon Sundstrom, Paul Horn, Yuezhi Mao, Dmitri Zuev, Alec White,
  David Stuck, Shaama M.S., Shane Yost, Joonho Lee, David Small,
  Daniel Levine, Susi Lehtola, Hugh Burton, Evgeny Epifanovsky
 -----------------------------------------------------------------------
 Exchange:     0.5000 Hartree-Fock + 0.5000 PTPSS-D3
 Correlation:  0.6250 PTPSS-D3
 Using Euler-Maclaurin-Lebedev (99,590) quadrature formula
 Dispersion:   Grimme D3
 using 8 threads for integral computing
 -------------------------------------------------------
 OpenMP Integral computing Module                
 Release: version 2.0, May 2017, Q-Chem Inc. Pleasanton 
 -------------------------------------------------------
 -------------------------------------------------------
 OpenMP BLAS3 based DFT computing Module                
 Release: version 1.0, May 2013, Q-Chem Inc. Pittsburgh 
 -------------------------------------------------------
 A restricted SCF calculation will be
 performed using GDM
 SCF converges when RMS gradient is below 1.0e-08
 ---------------------------------------
  Cycle       Energy        RMS Gradient
 ---------------------------------------
    1     -64.5393434537      8.16e-04   Normal BFGS step
    2     -64.5393504981      3.54e-04   Normal BFGS step
    3     -64.5393514147      9.40e-05   Normal BFGS step
    4     -64.5393514769      7.87e-05   Normal BFGS step
    5     -64.5393514938      2.39e-05   Normal BFGS step
    6     -64.5393514956      1.40e-06   Normal BFGS step
    7     -64.5393514956      4.25e-07   Normal BFGS step
    8     -64.5393514956      1.12e-07   Normal BFGS step
    9     -64.5393514956      1.13e-08   Normal BFGS step
   10     -64.5393514956      2.92e-09  Convergence criterion met
 ---------------------------------------
 SCF time:   CPU 534.99s  wall 67.00s 
 SCF   energy in the final basis set =      -64.5393514956
 Total energy in the final basis set =      -64.5393514956
 
 Components of the MP2 correlation energy:
        aaaa  correlation energy =         0.0000000000 au
        abab  correlation energy =        -0.1312254833 au
        bbbb  correlation energy =         0.0000000000 au
        non-Brillouin singles    =        -0.0000000000 au

 Total  MP2   correlation energy =                    -0.13122548 au
        MP2         total energy =                   -64.67057698 au
 
 --------------------------------------------------------------
 
                    Orbital Energies (a.u.)
 --------------------------------------------------------------
 
 Alpha MOs
 -- Occupied --
-10.563  -7.108  -0.777  -0.545  -0.477  -0.459  -0.276
 -- Virtual --
 -0.009   0.020   0.036   0.036   0.037   0.066   0.071   0.073
  0.083   0.108   0.110   0.126   0.139   0.143   0.146   0.178
  0.188   0.215   0.223   0.251   0.254   0.276   0.278   0.280
  0.308   0.312   0.322   0.344   0.360   0.362   0.373   0.384
  0.385   0.399   0.421   0.455   0.457   0.529   0.566   0.593
  0.605   0.628   0.628   0.631   0.662   0.695   0.704   0.724
  0.760   0.767   0.772   0.773   0.796   0.816   0.831   0.853
  0.854   0.895   0.941   0.941   0.973   1.001   1.012   1.021
  1.023   1.061   1.081   1.107   1.158   1.171   1.188   1.249
  1.264   1.265   1.278   1.364   1.401   1.445   1.452   1.505
  1.542   1.547   1.626   1.630   1.631   1.631   1.651   1.718
  1.719   1.737   1.740   1.835   1.886   1.967   1.971   2.005
  2.075   2.127   2.149   2.178   2.222   2.283   2.486   2.490
  2.517   2.665   2.670   2.721   2.838   2.952   2.981   3.070
  3.081   3.094   3.159   3.384   3.434   3.481   3.595   3.600
  3.638   3.647   3.658   3.811   3.898   3.935   3.960   3.996
  4.049   4.068   4.092   4.279   4.298   4.411   4.462   4.495
  4.570   4.626   4.637   4.661   4.679   4.908   4.979   5.101
  5.146   5.190   5.198   5.357   5.514   5.676   5.945   6.003
  6.375   6.490  10.403  10.638  11.786  12.149  15.487  16.354
 16.426  17.277  36.724  36.731  36.803  36.836  37.007  41.030
 41.054  41.222  41.243  41.283  55.563  55.708  56.758  60.417
 80.639  81.281  81.304  86.697
 --------------------------------------------------------------
 
          Ground-State Mulliken Net Atomic Charges

     Atom                 Charge (a.u.)
  ----------------------------------------
      1 C                    -1.115167
      2 B                    -0.076215
      3 H                     0.558762
      4 H                     0.558762
      5 H                     0.073858
  ----------------------------------------
  Sum of atomic charges =     0.000000

 -----------------------------------------------------------------
                    Cartesian Multipole Moments
 -----------------------------------------------------------------
    Charge (ESU x 10^10)
                 0.0000
    Dipole Moment (Debye)
         X       0.0000      Y       0.0000      Z      -0.7325
       Tot       0.7325
    Quadrupole Moments (Debye-Ang)
        XX     -16.3758     XY       0.0000     YY     -11.7593
        XZ      -0.0000     YZ       0.0000     ZZ     -11.5166
    Octopole Moments (Debye-Ang^2)
       XXX       0.0000    XXY      -0.0000    XYY       0.0000
       YYY       0.0000    XXZ       0.4540    XYZ       0.0000
       YYZ       1.4312    XZZ      -0.0000    YZZ      -0.0000
       ZZZ       1.8305
    Hexadecapole Moments (Debye-Ang^3)
      XXXX     -25.7266   XXXY       0.0000   XXYY      -8.1420
      XYYY       0.0000   YYYY     -20.4284   XXXZ      -0.0000
      XXYZ      -0.0000   XYYZ      -0.0000   YYYZ       0.0000
      XXZZ     -18.5621   XYZZ       0.0000   YYZZ     -14.4778
      XZZZ       0.0000   YZZZ       0.0000   ZZZZ     -75.3580
 -----------------------------------------------------------------
Archival summary:
1\1\n0092.mhg0\SP\ProcedureUnspecified\BasisUnspecified\113\yhljason\SatOct314:03:592020SatOct314:03:592020\0\\#,ProcedureUnspecified,BasisUnspecified,\\0,1\C\H,1,1.08246\H,1,1.08246,2,115.865\B,1,1.3826,2,122.068,3,-180,0\H,4,1.17,1,180,2,0,0\\\@

 Total job time:  100.58s(wall), 803.27s(cpu) 
 Sat Oct  3 14:03:59 2020

        *************************************************************
        *                                                           *
        *  Thank you very much for using Q-Chem.  Have a nice day.  *
        *                                                           *
        *************************************************************


