Q-Chem Developer Version!
                  Welcome to Q-Chem
     A Quantum Leap Into The Future Of Chemistry


 Q-Chem 5.1, Q-Chem, Inc., Pleasanton, CA (2018)

 Yihan Shao,  Zhengting Gan,  E. Epifanovsky,  A. T. B. Gilbert,  M. Wormit,  
 J. Kussmann,  A. W. Lange,  A. Behn,  Jia Deng,  Xintian Feng,  D. Ghosh,  
 M. Goldey,  P. R. Horn,  L. D. Jacobson,  I. Kaliman,  T. Kus,  A. Landau,  
 Jie Liu,  E. I. Proynov,  R. M. Richard,  R. P. Steele,  E. J. Sundstrom,  
 H. L. Woodcock III,  P. M. Zimmerman,  D. Zuev,  B. Albrecht,  E. Alguire,  
 S. A. Baeppler,  D. Barton,  Z. Benda,  Y. A. Bernard,  E. J. Berquist,  
 K. B. Bravaya,  H. Burton,  D. Casanova,  Chun-Min Chang,  Yunqing Chen,  
 A. Chien,  K. D. Closser,  M. P. Coons,  S. Coriani,  S. Dasgupta,  
 A. L. Dempwolff,  M. Diedenhofen,  Hainam Do,  R. G. Edgar,  Po-Tung Fang,  
 S. Faraji,  S. Fatehi,  Qingguo Feng,  K. D. Fenk,  J. Fosso-Tande,  
 Qinghui Ge,  A. Ghysels,  G. Gidofalvi,  J. Gomes,  J. Gonthier,  A. Gunina,  
 D. Hait,  M. W. D. Hanson-Heine,  P. H. P. Harbach,  A. W. Hauser,  
 J. E. Herr,  E. G. Hohenstein,  Z. C. Holden,  Kerwin Hui,  B. C. Huynh,  
 T.-C. Jagau,  Hyunjun Ji,  B. Kaduk,  K. Khistyaev,  Jaehoon Kim,  
 P. Klunzinger,  K. Koh,  D. Kosenkov,  L. Koulias,  T. Kowalczyk,  
 C. M. Krauter,  A. Kunitsa,  Ka Un Lao,  A. Laurent,  K. V. Lawler,  
 Joonho Lee,  D. Lefrancois,  S. Lehtola,  D. S. Levine,  Yi-Pei Li,  
 You-Sheng Lin,  Fenglai Liu,  E. Livshits,  A. Luenser,  P. Manohar,  
 E. Mansoor,  S. F. Manzer,  Shan-Ping Mao,  Yuezhi Mao,  N. Mardirossian,  
 A. V. Marenich,  T. Markovich,  L. A. Martinez-Martinez,  S. A. Maurer,  
 N. J. Mayhall,  S. C. McKenzie,  J.-M. Mewes,  A. F. Morrison,  
 J. W. Mullinax,  K. Nanda,  T. S. Nguyen-Beck,  R. Olivares-Amaya,  
 J. A. Parkhill,  T. M. Perrine,  F. Plasser,  P. Pokhilko,  S. Prager,  
 A. Prociuk,  E. Ramos,  D. R. Rehn,  F. Rob,  M. Schneider,  N. Sergueev,  
 S. M. Sharada,  S. Sharma,  D. W. Small,  T. Stauch,  T. Stein,  
 Yu-Chuan Su,  A. J. W. Thom,  A. Tkatchenko,  T. Tsuchimochi,  N. M. Tubman,  
 L. Vogt,  M. L. Vidal,  O. Vydrov,  M. A. Watson,  J. Wenzel,  
 M. de Wergifosse,  T. A. Wesolowski,  A. White,  J. Witte,  A. Yamada,  
 Jun Yang,  K. Yao,  S. Yeganeh,  S. R. Yost,  Zhi-Qiang You,  A. Zech,  
 Igor Ying Zhang,  Xing Zhang,  Yan Zhao,  Ying Zhu,  B. R. Brooks,  
 G. K. L. Chan,  C. J. Cramer,  M. S. Gordon,  W. J. Hehre,  A. Klamt,  
 M. W. Schmidt,  C. D. Sherrill,  D. G. Truhlar,  A. Aspuru-Guzik,  R. Baer,  
 A. T. Bell,  N. A. Besley,  Jeng-Da Chai,  A. E. DePrince, III,  
 R. A. DiStasio Jr.,  A. Dreuw,  B. D. Dunietz,  T. R. Furlani,  
 Chao-Ping Hsu,  Yousung Jung,  Jing Kong,  D. S. Lambrecht,  WanZhen Liang,  
 C. Ochsenfeld,  V. A. Rassolov,  L. V. Slipchenko,  J. E. Subotnik,  
 T. Van Voorhis,  J. M. Herbert,  A. I. Krylov,  P. M. W. Gill,  M. Head-Gordon

 Contributors to earlier versions of Q-Chem not listed above: 
 R. D. Adamson,  B. Austin,  J. Baker,  G. J. O. Beran,  K. Brandhorst,  
 S. T. Brown,  E. F. C. Byrd,  A. K. Chakraborty,  C.-L. Cheng,  
 Siu Hung Chien,  D. M. Chipman,  D. L. Crittenden,  H. Dachsel,  
 R. J. Doerksen,  A. D. Dutoi,  L. Fusti-Molnar,  W. A. Goddard III,  
 A. Golubeva-Zadorozhnaya,  S. R. Gwaltney,  G. Hawkins,  A. Heyden,  
 S. Hirata,  G. Kedziora,  F. J. Keil,  C. Kelley,  Jihan Kim,  R. A. King,  
 R. Z. Khaliullin,  P. P. Korambath,  W. Kurlancheek,  A. M. Lee,  M. S. Lee,  
 S. V. Levchenko,  Ching Yeh Lin,  D. Liotard,  R. C. Lochan,  I. Lotan,  
 P. E. Maslen,  N. Nair,  D. P. O'Neill,  D. Neuhauser,  E. Neuscamman,  
 C. M. Oana,  R. Olson,  B. Peters,  R. Peverati,  P. A. Pieniazek,  
 Y. M. Rhee,  J. Ritchie,  M. A. Rohrdanz,  E. Rosta,  N. J. Russ,  
 H. F. Schaefer III,  N. E. Schultz,  N. Shenvi,  A. C. Simmonett,  A. Sodt,  
 D. Stuck,  K. S. Thanthiriwatte,  V. Vanovschi,  Tao Wang,  A. Warshel,  
 C. F. Williams,  Q. Wu,  X. Xu,  W. Zhang

 Please cite Q-Chem as follows:
 Y. Shao et al., Mol. Phys. 113, 184-215 (2015)
 DOI: 10.1080/00268976.2014.952696

 Q-Chem 5.1.1 for Intel X86 EM64T Linux

 Parts of Q-Chem use Armadillo 8.300.2 (Tropical Shenanigans).
 http://arma.sourceforge.net/

 Q-Chem begins on Sat Oct  3 13:50:22 2020  

Host: n0092.mhg0
0

     Scratch files written to /local/scratch/users/yhljason/CH3-_PTPSS-D3_aug-cc-pcVQZ.inp20201003135020//
Input Ideriv = 0
Curr. Ideriv = -1
Max.  Ideriv = 0
Analytic post-HF gradients are not available with non-HF exchange
Input Ideriv = 0
Curr. Ideriv = 0
Max.  Ideriv = 0

Checking the input file for inconsistencies... 	...done.

--------------------------------------------------------------
User input:
--------------------------------------------------------------
$molecule
-1 1
C1         0.0000000000    0.0000002206    0.0716704292
H2         0.0000000000    1.0378118041   -0.2899567231
H3         0.8987709644   -0.5189060123   -0.2899568531
H4        -0.8987709644   -0.5189060124   -0.2899568531
$end

$rem
jobtype sp
method PTPSS-D3
xc_grid 000099000590
basis aug-cc-pcVQZ
max_scf_cycles 200
thresh 14
scf_convergence 8
scf_algorithm gdm
symmetry false
sym_ignore true
unrestricted false
gen_scfman true
internal_stability_iter 15
internal_stability_davidson_iter 200
mem_total 128000
cc_memory 96000
cc_backend xm
mem_static 1500
n_frozen_core 0
$end



--------------------------------------------------------------
 Adding empirical dispersion correction 
 ----------------------------------------------------------------
 Doing -D3(0) with
 s6  =   0.75000
 s8  =   0.87900
 rs6 =   1.54100
 rs8 =   1.00000
 -D3 energy without 3body term =     -0.0000420200 hartrees
 ----------------------------------------------------------------
             Standard Nuclear Orientation (Angstroms)
    I     Atom           X                Y                Z
 ----------------------------------------------------------------
    1      C       0.0000000000     0.0000002206     0.0716704292
    2      H       0.0000000000     1.0378118041    -0.2899567231
    3      H       0.8987709644    -0.5189060123    -0.2899568531
    4      H      -0.8987709644    -0.5189060124    -0.2899568531
 ----------------------------------------------------------------
 Nuclear Repulsion Energy =     9.5501745798 hartrees
 There are        5 alpha and        5 beta electrons
 Requested basis set is aug-cc-pCVQZ
 There are 71 shells and 247 basis functions

 Total QAlloc Memory Limit 128000 MB
 Mega-Array Size      1467 MB
 MEM_STATIC part      1500 MB

                       Distance Matrix (Angstroms)
             C (  1)   H (  2)   H (  3)
   H (  2)  1.099012
   H (  3)  1.099012  1.797543
   H (  4)  1.099012  1.797543  1.797542
 
 A cutoff of  1.0D-14 yielded   2556 shell pairs
 There are     31120 function pairs (     47305 Cartesian)
 
 -------------------------------------------------------
 OpenMP Integral Computing Module                       
 Release: version 1.0, May 2013, Q-Chem Inc. Pittsburgh 
 -------------------------------------------------------
 Integral Job Info:
 Integral job number is                      11
 Integral operator is                         1
 short-range coefficients                     0
 long-range coefficients              100000000
 Omega coefficients                           0
 if combine SR and LR in K                    0
 Integral screening is                        0
 Integral computing path is                   2
 max size of driver memory is           3200000
 size of driver memory is               1704330
 size of scratch memory is             18511652
 max col of scratch BK array              50625
 max len of scratch array in speh3         2114
 max len of scratch index in speh4           50
 max int batch size is                      520
 min int batch size is                       52
 fixed nKL is                                52
 max L of basis functions is                  4
 order of int derivative is                   0
 number of shells is                         71
 number of basis is                         304
 number of cartesian basis is               304
 number of contracted shell pairs          2556
 number of primitive shell pairs           4521
 maxK2 (contraction) of shell pair           81
 max number of K2 of shell pair               1
 max number of CS2 of shell pair            364
 max number of PS2 of shell pair            369
 mem total for path MDJ                  671149
 -------------------------------------------------------
 Smallest overlap matrix eigenvalue = 2.97E-05

 Scale SEOQF with 1.000000e-01/1.000000e-01/1.000000e-01

 Standard Electronic Orientation quadrupole field applied
 Nucleus-field energy     =     0.0000000001 hartrees
 Guess from superposition of atomic densities
 Warning:  Energy on first SCF cycle will be non-variational
 SAD guess density has 9.000000 electrons

 -----------------------------------------------------------------------
  General SCF calculation program by
  Eric Jon Sundstrom, Paul Horn, Yuezhi Mao, Dmitri Zuev, Alec White,
  David Stuck, Shaama M.S., Shane Yost, Joonho Lee, David Small,
  Daniel Levine, Susi Lehtola, Hugh Burton, Evgeny Epifanovsky
 -----------------------------------------------------------------------
 Exchange:     0.5000 Hartree-Fock + 0.5000 PTPSS-D3
 Correlation:  0.6250 PTPSS-D3
 Using Euler-Maclaurin-Lebedev (99,590) quadrature formula
 Dispersion:   Grimme D3
Running Object-Oriented RKS (RHF)
We will preform up to 15 macro iterations over saddle points until a stable solution is found
Energy prior to optimization (guess energy) = -39.599165492082
Begin Timing: Total SCF Calculation
Begin Timing: SCF Single Stationary Point Calculation
begin iterations for algorithm: GDM          
the SCF tolerance is set to 1.00e-08
    1     -39.5991654921      2.06e-01     00000  Descent step
    2     -39.6932109724      1.72e-01     00000  Normal BFGS step
    3     -39.7319172536      5.51e-02     00000  Normal BFGS step
    4     -39.7361401460      1.62e-02     00000  Normal BFGS step
    5     -39.7364943002      2.07e-03     00000  Normal BFGS step
    6     -39.7365203836      6.53e-04     00000  Normal BFGS step
    7     -39.7365241944      9.46e-05     00000  Normal BFGS step
    8     -39.7365242435      3.42e-05     00000  Normal BFGS step
    9     -39.7365242507      2.34e-05     00000  Normal BFGS step
   10     -39.7365242526      8.01e-06     00000  Normal BFGS step
   11     -39.7365242528      1.95e-06     00000  Normal BFGS step
   12     -39.7365242528      4.34e-07     00000  Normal BFGS step
   13     -39.7365242528      1.13e-07     00000  Normal BFGS step
   14     -39.7365242528      1.26e-08     00000  Normal BFGS step
   15     -39.7365242528      3.22e-09     00000 Convergence criterion met
Timing for Single Stationary Point: 209.00s (wall), 1670.08s (cpu)
Begin Timing: Stability
===================================================
Beginning Test for Internal Stability
===================================================
generating davidson guess vectors based on koopmans excitations
    1      1.83e+00     00000 Davidson Iteration
    2      3.35e-01     00000 Davidson Iteration
    3      2.13e-02     00000 Davidson Iteration
    4      2.00e-02     00000 Davidson Iteration
    5      5.32e-03     00000 Davidson Iteration
    6      1.17e-03     00000 Davidson Iteration
    7      9.29e-05     00000 Davidson Iteration
    8      6.94e-05     00000 Davidson Converged
converged_eigenvalues
   0.2164
   0.1638
Threshold for negative eigenvalues: -1.0e-05
solution was a local minimum (stable)
===================================================
End Test for Internal Stability
===================================================
Our SCF solution is stable!
Timing for Total SCF: 400.00s (wall), 3199.21s (cpu)
 Total energy in the final basis set =      -39.7365242528
    ==================================================
              The end of Object-Oriented SCFman       
    ==================================================
 
 Components of the MP2 correlation energy:
        aaaa  correlation energy =         0.0000000000 au
        abab  correlation energy =        -0.1015681018 au
        bbbb  correlation energy =         0.0000000000 au
        non-Brillouin singles    =        -0.0000000000 au

 Total  MP2   correlation energy =                    -0.10156810 au
        MP2         total energy =                   -39.83809235 au
 
 --------------------------------------------------------------
 
                    Orbital Energies (a.u.)
 --------------------------------------------------------------
 
 Alpha MOs
 -- Occupied --
-10.311  -0.490  -0.188  -0.188   0.028
 -- Virtual --
  0.129   0.139   0.139   0.196   0.223   0.223   0.245   0.309
  0.309   0.347   0.349   0.349   0.396   0.406   0.406   0.408
  0.417   0.423   0.423   0.453   0.453   0.466   0.523   0.523
  0.652   0.677   0.677   0.709   0.727   0.727   0.815   0.823
  0.843   0.843   0.867   0.870   0.870   0.887   0.900   0.900
  0.945   0.945   0.950   0.963   0.963   0.974   1.057   1.057
  1.057   1.141   1.141   1.219   1.219   1.237   1.276   1.285
  1.332   1.332   1.502   1.523   1.568   1.568   1.618   1.618
  1.651   1.741   1.741   1.872   1.872   1.875   1.877   1.929
  1.929   1.945   1.987   1.987   2.038   2.043   2.043   2.125
  2.128   2.128   2.177   2.188   2.188   2.192   2.192   2.209
  2.270   2.293   2.293   2.423   2.488   2.488   2.497   2.577
  2.600   2.600   2.712   2.754   2.754   2.820   2.820   2.844
  2.861   2.882   2.882   2.902   2.952   2.952   3.143   3.143
  3.181   3.263   3.263   3.507   3.507   3.507   3.639   3.697
  3.871   3.871   3.925   3.925   3.925   4.017   4.095   4.147
  4.147   4.209   4.209   4.316   4.316   4.380   4.380   4.584
  4.729   4.760   4.760   5.013   5.742   6.001   6.001   6.144
  6.144   6.309   6.309   6.313   6.322   6.514   6.514   6.514
  6.742   6.813   6.813   6.858   6.901   6.954   6.954   6.997
  6.997   7.104   7.104   7.151   7.232   7.311   7.311   7.458
  7.706   7.752   7.752   7.893   7.893   7.953   8.193   8.193
  8.321   8.362   8.362   8.554   8.623   8.623   8.701   8.701
  8.985   9.040   9.208   9.208   9.274   9.345   9.345   9.400
  9.400   9.407   9.641   9.651   9.651  10.009  10.130  10.130
 10.209  10.307  10.307  10.630  10.672  10.672  10.819  10.819
 11.375  11.469  12.822  12.822  14.181  19.819  21.077  21.077
 26.988  26.988  27.276  27.899  27.899  37.682  66.864  67.812
 67.812  98.530  98.551  98.551  98.569  98.569  98.575  98.610
115.107 115.107 115.234 115.564 115.564 123.381 224.970 225.751
225.751 509.771
 --------------------------------------------------------------
 
          Ground-State Mulliken Net Atomic Charges

     Atom                 Charge (a.u.)
  ----------------------------------------
      1 C                    -1.798624
      2 H                     0.266209
      3 H                     0.266208
      4 H                     0.266208
  ----------------------------------------
  Sum of atomic charges =    -1.000000

 -----------------------------------------------------------------
                    Cartesian Multipole Moments
 -----------------------------------------------------------------
    Charge (ESU x 10^10)
                -4.8032
    Dipole Moment (Debye)
         X       0.0000      Y      -0.0000      Z      -1.4598
       Tot       1.4598
    Quadrupole Moments (Debye-Ang)
        XX     -13.2902     XY       0.0000     YY     -13.2902
        XZ      -0.0000     YZ      -0.0000     ZZ     -21.2520
    Octopole Moments (Debye-Ang^2)
       XXX       0.0000    XXY      -0.0922    XYY       0.0000
       YYY       0.0922    XXZ      -1.0325    XYZ       0.0000
       YYZ      -1.0325    XZZ       0.0000    YZZ      -0.0000
       ZZZ      -3.7547
    Hexadecapole Moments (Debye-Ang^3)
      XXXX     -39.3855   XXXY      -0.0000   XXYY     -13.1285
      XYYY      -0.0000   YYYY     -39.3855   XXXZ      -0.0000
      XXYZ       0.0014   XYYZ      -0.0000   YYYZ      -0.0014
      XXZZ     -23.7667   XYZZ      -0.0000   YYZZ     -23.7667
      XZZZ      -0.0000   YZZZ      -0.0000   ZZZZ    -102.5760
 -----------------------------------------------------------------
Archival summary:
1\1\n0092.mhg0\SP\ProcedureUnspecified\BasisUnspecified\13(1-,1)\yhljason\SatOct313:59:322020SatOct313:59:322020\0\\#,ProcedureUnspecified,BasisUnspecified,\\-1,1\C\H,1,1.09901\H,1,1.09901,2,109.73\H,1,1.09901,2,109.73,3,-120.64,0\\\@

 Total job time:  550.57s(wall), 4395.31s(cpu) 
 Sat Oct  3 13:59:32 2020

        *************************************************************
        *                                                           *
        *  Thank you very much for using Q-Chem.  Have a nice day.  *
        *                                                           *
        *************************************************************


 
User input: 2 of 83 of 8 
 
Q-Chem Developer Version!
                  Welcome to Q-Chem
     A Quantum Leap Into The Future Of Chemistry


 Q-Chem 5.1, Q-Chem, Inc., Pleasanton, CA (2018)

 Yihan Shao,  Zhengting Gan,  E. Epifanovsky,  A. T. B. Gilbert,  M. Wormit,  
 J. Kussmann,  A. W. Lange,  A. Behn,  Jia Deng,  Xintian Feng,  D. Ghosh,  
 M. Goldey,  P. R. Horn,  L. D. Jacobson,  I. Kaliman,  T. Kus,  A. Landau,  
 Jie Liu,  E. I. Proynov,  R. M. Richard,  R. P. Steele,  E. J. Sundstrom,  
 H. L. Woodcock III,  P. M. Zimmerman,  D. Zuev,  B. Albrecht,  E. Alguire,  
 S. A. Baeppler,  D. Barton,  Z. Benda,  Y. A. Bernard,  E. J. Berquist,  
 K. B. Bravaya,  H. Burton,  D. Casanova,  Chun-Min Chang,  Yunqing Chen,  
 A. Chien,  K. D. Closser,  M. P. Coons,  S. Coriani,  S. Dasgupta,  
 A. L. Dempwolff,  M. Diedenhofen,  Hainam Do,  R. G. Edgar,  Po-Tung Fang,  
 S. Faraji,  S. Fatehi,  Qingguo Feng,  K. D. Fenk,  J. Fosso-Tande,  
 Qinghui Ge,  A. Ghysels,  G. Gidofalvi,  J. Gomes,  J. Gonthier,  A. Gunina,  
 D. Hait,  M. W. D. Hanson-Heine,  P. H. P. Harbach,  A. W. Hauser,  
 J. E. Herr,  E. G. Hohenstein,  Z. C. Holden,  Kerwin Hui,  B. C. Huynh,  
 T.-C. Jagau,  Hyunjun Ji,  B. Kaduk,  K. Khistyaev,  Jaehoon Kim,  
 P. Klunzinger,  K. Koh,  D. Kosenkov,  L. Koulias,  T. Kowalczyk,  
 C. M. Krauter,  A. Kunitsa,  Ka Un Lao,  A. Laurent,  K. V. Lawler,  
 Joonho Lee,  D. Lefrancois,  S. Lehtola,  D. S. Levine,  Yi-Pei Li,  
 You-Sheng Lin,  Fenglai Liu,  E. Livshits,  A. Luenser,  P. Manohar,  
 E. Mansoor,  S. F. Manzer,  Shan-Ping Mao,  Yuezhi Mao,  N. Mardirossian,  
 A. V. Marenich,  T. Markovich,  L. A. Martinez-Martinez,  S. A. Maurer,  
 N. J. Mayhall,  S. C. McKenzie,  J.-M. Mewes,  A. F. Morrison,  
 J. W. Mullinax,  K. Nanda,  T. S. Nguyen-Beck,  R. Olivares-Amaya,  
 J. A. Parkhill,  T. M. Perrine,  F. Plasser,  P. Pokhilko,  S. Prager,  
 A. Prociuk,  E. Ramos,  D. R. Rehn,  F. Rob,  M. Schneider,  N. Sergueev,  
 S. M. Sharada,  S. Sharma,  D. W. Small,  T. Stauch,  T. Stein,  
 Yu-Chuan Su,  A. J. W. Thom,  A. Tkatchenko,  T. Tsuchimochi,  N. M. Tubman,  
 L. Vogt,  M. L. Vidal,  O. Vydrov,  M. A. Watson,  J. Wenzel,  
 M. de Wergifosse,  T. A. Wesolowski,  A. White,  J. Witte,  A. Yamada,  
 Jun Yang,  K. Yao,  S. Yeganeh,  S. R. Yost,  Zhi-Qiang You,  A. Zech,  
 Igor Ying Zhang,  Xing Zhang,  Yan Zhao,  Ying Zhu,  B. R. Brooks,  
 G. K. L. Chan,  C. J. Cramer,  M. S. Gordon,  W. J. Hehre,  A. Klamt,  
 M. W. Schmidt,  C. D. Sherrill,  D. G. Truhlar,  A. Aspuru-Guzik,  R. Baer,  
 A. T. Bell,  N. A. Besley,  Jeng-Da Chai,  A. E. DePrince, III,  
 R. A. DiStasio Jr.,  A. Dreuw,  B. D. Dunietz,  T. R. Furlani,  
 Chao-Ping Hsu,  Yousung Jung,  Jing Kong,  D. S. Lambrecht,  WanZhen Liang,  
 C. Ochsenfeld,  V. A. Rassolov,  L. V. Slipchenko,  J. E. Subotnik,  
 T. Van Voorhis,  J. M. Herbert,  A. I. Krylov,  P. M. W. Gill,  M. Head-Gordon

 Contributors to earlier versions of Q-Chem not listed above: 
 R. D. Adamson,  B. Austin,  J. Baker,  G. J. O. Beran,  K. Brandhorst,  
 S. T. Brown,  E. F. C. Byrd,  A. K. Chakraborty,  C.-L. Cheng,  
 Siu Hung Chien,  D. M. Chipman,  D. L. Crittenden,  H. Dachsel,  
 R. J. Doerksen,  A. D. Dutoi,  L. Fusti-Molnar,  W. A. Goddard III,  
 A. Golubeva-Zadorozhnaya,  S. R. Gwaltney,  G. Hawkins,  A. Heyden,  
 S. Hirata,  G. Kedziora,  F. J. Keil,  C. Kelley,  Jihan Kim,  R. A. King,  
 R. Z. Khaliullin,  P. P. Korambath,  W. Kurlancheek,  A. M. Lee,  M. S. Lee,  
 S. V. Levchenko,  Ching Yeh Lin,  D. Liotard,  R. C. Lochan,  I. Lotan,  
 P. E. Maslen,  N. Nair,  D. P. O'Neill,  D. Neuhauser,  E. Neuscamman,  
 C. M. Oana,  R. Olson,  B. Peters,  R. Peverati,  P. A. Pieniazek,  
 Y. M. Rhee,  J. Ritchie,  M. A. Rohrdanz,  E. Rosta,  N. J. Russ,  
 H. F. Schaefer III,  N. E. Schultz,  N. Shenvi,  A. C. Simmonett,  A. Sodt,  
 D. Stuck,  K. S. Thanthiriwatte,  V. Vanovschi,  Tao Wang,  A. Warshel,  
 C. F. Williams,  Q. Wu,  X. Xu,  W. Zhang

 Please cite Q-Chem as follows:
 Y. Shao et al., Mol. Phys. 113, 184-215 (2015)
 DOI: 10.1080/00268976.2014.952696

 Q-Chem 5.1.1 for Intel X86 EM64T Linux

 Parts of Q-Chem use Armadillo 8.300.2 (Tropical Shenanigans).
 http://arma.sourceforge.net/

 Q-Chem begins on Sat Oct  3 13:59:44 2020  

Host: n0092.mhg0
0

     Scratch files written to /local/scratch/users/yhljason/CH3-_PTPSS-D3_aug-cc-pcVQZ.inp20201003135020//
The previous job contains 0 fragments, simply inherited here
Input Ideriv = 0
Curr. Ideriv = -1
Max.  Ideriv = 0
Analytic post-HF gradients are not available with non-HF exchange
Input Ideriv = 0
Curr. Ideriv = 0
Max.  Ideriv = 0

Checking the input file for inconsistencies... 	...done.

--------------------------------------------------------------
User input:
--------------------------------------------------------------
$molecule
read
$end

$rem

jobtype sp
method PTPSS-D3
xc_grid 000099000590
basis aug-cc-pcVQZ
max_scf_cycles 200
thresh 14
scf_convergence 8
mem_total 128000
cc_memory 96000
cc_backend xm
mem_static 1500
symmetry false
sym_ignore true
scf_guess read
unrestricted false
scf_algorithm gdm
n_frozen_core 0
$end

$multipole_field
XX 0.0001
$end


--------------------------------------------------------------
 Adding empirical dispersion correction 
 ----------------------------------------------------------------
 Doing -D3(0) with
 s6  =   0.75000
 s8  =   0.87900
 rs6 =   1.54100
 rs8 =   1.00000
 -D3 energy without 3body term =     -0.0000420200 hartrees
 ----------------------------------------------------------------
             Standard Nuclear Orientation (Angstroms)
    I     Atom           X                Y                Z
 ----------------------------------------------------------------
    1      C       0.0000000000     0.0000002206     0.0716704292
    2      H       0.0000000000     1.0378118041    -0.2899567231
    3      H       0.8987709644    -0.5189060123    -0.2899568531
    4      H      -0.8987709644    -0.5189060124    -0.2899568531
 ----------------------------------------------------------------
 Nuclear Repulsion Energy =     9.5501745798 hartrees
 There are        5 alpha and        5 beta electrons
 Requested basis set is aug-cc-pCVQZ
 There are 71 shells and 247 basis functions

 Total QAlloc Memory Limit 128000 MB
 Mega-Array Size      1467 MB
 MEM_STATIC part      1500 MB

                       Distance Matrix (Angstroms)
             C (  1)   H (  2)   H (  3)
   H (  2)  1.099012
   H (  3)  1.099012  1.797543
   H (  4)  1.099012  1.797543  1.797542
 
 Applying Cartesian multipole field
    Component          Value
    ---------          -----
     (2,0,0)        1.00000E-04
 Nucleus-field energy     =     0.0005769336 hartrees
 A cutoff of  1.0D-14 yielded   2556 shell pairs
 There are     31120 function pairs (     47305 Cartesian)
 
 -------------------------------------------------------
 OpenMP Integral Computing Module                       
 Release: version 1.0, May 2013, Q-Chem Inc. Pittsburgh 
 -------------------------------------------------------
 Integral Job Info:
 Integral job number is                      11
 Integral operator is                         1
 short-range coefficients                     0
 long-range coefficients              100000000
 Omega coefficients                           0
 if combine SR and LR in K                    0
 Integral screening is                        0
 Integral computing path is                   2
 max size of driver memory is           3200000
 size of driver memory is               1704330
 size of scratch memory is             18511652
 max col of scratch BK array              50625
 max len of scratch array in speh3         2114
 max len of scratch index in speh4           50
 max int batch size is                      520
 min int batch size is                       52
 fixed nKL is                                52
 max L of basis functions is                  4
 order of int derivative is                   0
 number of shells is                         71
 number of basis is                         304
 number of cartesian basis is               304
 number of contracted shell pairs          2556
 number of primitive shell pairs           4521
 maxK2 (contraction) of shell pair           81
 max number of K2 of shell pair               1
 max number of CS2 of shell pair            364
 max number of PS2 of shell pair            369
 mem total for path MDJ                  671149
 -------------------------------------------------------
 Smallest overlap matrix eigenvalue = 2.97E-05
 Guess MOs from SCF MO coefficient file

 -----------------------------------------------------------------------
  General SCF calculation program by
  Eric Jon Sundstrom, Paul Horn, Yuezhi Mao, Dmitri Zuev, Alec White,
  David Stuck, Shaama M.S., Shane Yost, Joonho Lee, David Small,
  Daniel Levine, Susi Lehtola, Hugh Burton, Evgeny Epifanovsky
 -----------------------------------------------------------------------
 Exchange:     0.5000 Hartree-Fock + 0.5000 PTPSS-D3
 Correlation:  0.6250 PTPSS-D3
 Using Euler-Maclaurin-Lebedev (99,590) quadrature formula
 Dispersion:   Grimme D3
 using 8 threads for integral computing
 -------------------------------------------------------
 OpenMP Integral computing Module                
 Release: version 2.0, May 2017, Q-Chem Inc. Pleasanton 
 -------------------------------------------------------
 -------------------------------------------------------
 OpenMP BLAS3 based DFT computing Module                
 Release: version 1.0, May 2013, Q-Chem Inc. Pittsburgh 
 -------------------------------------------------------
 A restricted SCF calculation will be
 performed using GDM
 SCF converges when RMS gradient is below 1.0e-08
 ---------------------------------------
  Cycle       Energy        RMS Gradient
 ---------------------------------------
    1     -39.7375123462      8.41e-04   Normal BFGS step
    2     -39.7375135317      3.47e-04   Normal BFGS step
    3     -39.7375140847      9.54e-05   Normal BFGS step
    4     -39.7375141406      2.48e-05   Normal BFGS step
    5     -39.7375141419      6.43e-06   Normal BFGS step
    6     -39.7375141421      8.93e-07   Normal BFGS step
    7     -39.7375141421      3.46e-07   Normal BFGS step
    8     -39.7375141421      1.94e-07   Normal BFGS step
    9     -39.7375141421      7.53e-08   Normal BFGS step
   10     -39.7375141421      2.02e-08   Normal BFGS step
   11     -39.7375141421      7.93e-09  Convergence criterion met
 ---------------------------------------
 SCF time:   CPU 1366.63s  wall 172.00s 
 SCF   energy in the final basis set =      -39.7375141421
 Total energy in the final basis set =      -39.7375141421
 
 Components of the MP2 correlation energy:
        aaaa  correlation energy =         0.0000000000 au
        abab  correlation energy =        -0.1015985738 au
        bbbb  correlation energy =         0.0000000000 au
        non-Brillouin singles    =        -0.0000000000 au

 Total  MP2   correlation energy =                    -0.10159857 au
        MP2         total energy =                   -39.83911272 au
 
 --------------------------------------------------------------
 
                    Orbital Energies (a.u.)
 --------------------------------------------------------------
 
 Alpha MOs
 -- Occupied --
-10.312  -0.491  -0.188  -0.188   0.027
 -- Virtual --
  0.126   0.133   0.136   0.195   0.219   0.221   0.243   0.306
  0.307   0.346   0.347   0.348   0.395   0.403   0.404   0.406
  0.415   0.421   0.422   0.451   0.452   0.465   0.521   0.522
  0.651   0.676   0.676   0.708   0.726   0.726   0.813   0.822
  0.842   0.842   0.866   0.869   0.869   0.886   0.898   0.899
  0.944   0.944   0.949   0.962   0.962   0.973   1.056   1.056
  1.057   1.140   1.140   1.218   1.218   1.236   1.275   1.284
  1.331   1.331   1.501   1.522   1.567   1.567   1.616   1.617
  1.650   1.740   1.740   1.871   1.871   1.874   1.876   1.929
  1.929   1.944   1.987   1.987   2.037   2.042   2.042   2.124
  2.127   2.127   2.176   2.187   2.188   2.191   2.191   2.208
  2.269   2.292   2.292   2.422   2.487   2.488   2.496   2.576
  2.599   2.599   2.711   2.753   2.753   2.819   2.819   2.843
  2.860   2.881   2.881   2.902   2.952   2.952   3.142   3.142
  3.180   3.262   3.262   3.506   3.506   3.506   3.638   3.696
  3.870   3.870   3.924   3.924   3.924   4.016   4.094   4.146
  4.146   4.208   4.209   4.315   4.315   4.379   4.379   4.584
  4.728   4.760   4.760   5.012   5.741   6.000   6.000   6.143
  6.143   6.308   6.308   6.312   6.321   6.513   6.513   6.514
  6.741   6.812   6.812   6.857   6.900   6.954   6.954   6.996
  6.996   7.103   7.103   7.150   7.231   7.311   7.311   7.457
  7.706   7.751   7.751   7.893   7.893   7.952   8.192   8.192
  8.321   8.361   8.361   8.554   8.622   8.622   8.700   8.700
  8.984   9.039   9.207   9.207   9.274   9.344   9.344   9.399
  9.399   9.406   9.640   9.650   9.650  10.008  10.129  10.129
 10.208  10.306  10.306  10.629  10.671  10.671  10.818  10.818
 11.374  11.468  12.822  12.822  14.180  19.818  21.077  21.077
 26.987  26.987  27.275  27.898  27.898  37.681  66.863  67.811
 67.811  98.529  98.550  98.550  98.568  98.568  98.574  98.609
115.106 115.106 115.233 115.563 115.563 123.380 224.970 225.750
225.750 509.770
 --------------------------------------------------------------
 
          Ground-State Mulliken Net Atomic Charges

     Atom                 Charge (a.u.)
  ----------------------------------------
      1 C                    -1.804623
      2 H                     0.273122
      3 H                     0.265750
      4 H                     0.265750
  ----------------------------------------
  Sum of atomic charges =    -1.000000

 -----------------------------------------------------------------
                    Cartesian Multipole Moments
 -----------------------------------------------------------------
    Charge (ESU x 10^10)
                -4.8032
    Dipole Moment (Debye)
         X       0.0000      Y       0.0023      Z      -1.4599
       Tot       1.4599
    Quadrupole Moments (Debye-Ang)
        XX     -13.3386     XY       0.0000     YY     -13.2995
        XZ      -0.0000     YZ      -0.0029     ZZ     -21.3162
    Octopole Moments (Debye-Ang^2)
       XXX       0.0000    XXY      -0.0860    XYY       0.0000
       YYY       0.1041    XXZ      -1.0388    XYZ       0.0000
       YYZ      -1.0383    XZZ       0.0000    YZZ       0.0025
       ZZZ      -3.7677
    Hexadecapole Moments (Debye-Ang^3)
      XXXX     -39.7523   XXXY      -0.0000   XXYY     -13.2068
      XYYY      -0.0000   YYYY     -39.4848   XXXZ      -0.0000
      XXYZ      -0.0114   XYYZ      -0.0000   YYYZ      -0.0109
      XXZZ     -24.0039   XYZZ      -0.0000   YYZZ     -23.9095
      XZZZ      -0.0000   YZZZ      -0.0183   ZZZZ    -103.4846
 -----------------------------------------------------------------
Archival summary:
1\1\n0092.mhg0\SP\ProcedureUnspecified\BasisUnspecified\13(1-,1)\yhljason\SatOct314:04:442020SatOct314:04:442020\0\\#,ProcedureUnspecified,BasisUnspecified,\\-1,1\C\H,1,1.09901\H,1,1.09901,2,109.73\H,1,1.09901,2,109.73,3,-120.64,0\\\@

 Total job time:  299.97s(wall), 2390.58s(cpu) 
 Sat Oct  3 14:04:44 2020

        *************************************************************
        *                                                           *
        *  Thank you very much for using Q-Chem.  Have a nice day.  *
        *                                                           *
        *************************************************************


 
User input: 4 of 8 
 
Q-Chem Developer Version!
                  Welcome to Q-Chem
     A Quantum Leap Into The Future Of Chemistry


 Q-Chem 5.1, Q-Chem, Inc., Pleasanton, CA (2018)

 Yihan Shao,  Zhengting Gan,  E. Epifanovsky,  A. T. B. Gilbert,  M. Wormit,  
 J. Kussmann,  A. W. Lange,  A. Behn,  Jia Deng,  Xintian Feng,  D. Ghosh,  
 M. Goldey,  P. R. Horn,  L. D. Jacobson,  I. Kaliman,  T. Kus,  A. Landau,  
 Jie Liu,  E. I. Proynov,  R. M. Richard,  R. P. Steele,  E. J. Sundstrom,  
 H. L. Woodcock III,  P. M. Zimmerman,  D. Zuev,  B. Albrecht,  E. Alguire,  
 S. A. Baeppler,  D. Barton,  Z. Benda,  Y. A. Bernard,  E. J. Berquist,  
 K. B. Bravaya,  H. Burton,  D. Casanova,  Chun-Min Chang,  Yunqing Chen,  
 A. Chien,  K. D. Closser,  M. P. Coons,  S. Coriani,  S. Dasgupta,  
 A. L. Dempwolff,  M. Diedenhofen,  Hainam Do,  R. G. Edgar,  Po-Tung Fang,  
 S. Faraji,  S. Fatehi,  Qingguo Feng,  K. D. Fenk,  J. Fosso-Tande,  
 Qinghui Ge,  A. Ghysels,  G. Gidofalvi,  J. Gomes,  J. Gonthier,  A. Gunina,  
 D. Hait,  M. W. D. Hanson-Heine,  P. H. P. Harbach,  A. W. Hauser,  
 J. E. Herr,  E. G. Hohenstein,  Z. C. Holden,  Kerwin Hui,  B. C. Huynh,  
 T.-C. Jagau,  Hyunjun Ji,  B. Kaduk,  K. Khistyaev,  Jaehoon Kim,  
 P. Klunzinger,  K. Koh,  D. Kosenkov,  L. Koulias,  T. Kowalczyk,  
 C. M. Krauter,  A. Kunitsa,  Ka Un Lao,  A. Laurent,  K. V. Lawler,  
 Joonho Lee,  D. Lefrancois,  S. Lehtola,  D. S. Levine,  Yi-Pei Li,  
 You-Sheng Lin,  Fenglai Liu,  E. Livshits,  A. Luenser,  P. Manohar,  
 E. Mansoor,  S. F. Manzer,  Shan-Ping Mao,  Yuezhi Mao,  N. Mardirossian,  
 A. V. Marenich,  T. Markovich,  L. A. Martinez-Martinez,  S. A. Maurer,  
 N. J. Mayhall,  S. C. McKenzie,  J.-M. Mewes,  A. F. Morrison,  
 J. W. Mullinax,  K. Nanda,  T. S. Nguyen-Beck,  R. Olivares-Amaya,  
 J. A. Parkhill,  T. M. Perrine,  F. Plasser,  P. Pokhilko,  S. Prager,  
 A. Prociuk,  E. Ramos,  D. R. Rehn,  F. Rob,  M. Schneider,  N. Sergueev,  
 S. M. Sharada,  S. Sharma,  D. W. Small,  T. Stauch,  T. Stein,  
 Yu-Chuan Su,  A. J. W. Thom,  A. Tkatchenko,  T. Tsuchimochi,  N. M. Tubman,  
 L. Vogt,  M. L. Vidal,  O. Vydrov,  M. A. Watson,  J. Wenzel,  
 M. de Wergifosse,  T. A. Wesolowski,  A. White,  J. Witte,  A. Yamada,  
 Jun Yang,  K. Yao,  S. Yeganeh,  S. R. Yost,  Zhi-Qiang You,  A. Zech,  
 Igor Ying Zhang,  Xing Zhang,  Yan Zhao,  Ying Zhu,  B. R. Brooks,  
 G. K. L. Chan,  C. J. Cramer,  M. S. Gordon,  W. J. Hehre,  A. Klamt,  
 M. W. Schmidt,  C. D. Sherrill,  D. G. Truhlar,  A. Aspuru-Guzik,  R. Baer,  
 A. T. Bell,  N. A. Besley,  Jeng-Da Chai,  A. E. DePrince, III,  
 R. A. DiStasio Jr.,  A. Dreuw,  B. D. Dunietz,  T. R. Furlani,  
 Chao-Ping Hsu,  Yousung Jung,  Jing Kong,  D. S. Lambrecht,  WanZhen Liang,  
 C. Ochsenfeld,  V. A. Rassolov,  L. V. Slipchenko,  J. E. Subotnik,  
 T. Van Voorhis,  J. M. Herbert,  A. I. Krylov,  P. M. W. Gill,  M. Head-Gordon

 Contributors to earlier versions of Q-Chem not listed above: 
 R. D. Adamson,  B. Austin,  J. Baker,  G. J. O. Beran,  K. Brandhorst,  
 S. T. Brown,  E. F. C. Byrd,  A. K. Chakraborty,  C.-L. Cheng,  
 Siu Hung Chien,  D. M. Chipman,  D. L. Crittenden,  H. Dachsel,  
 R. J. Doerksen,  A. D. Dutoi,  L. Fusti-Molnar,  W. A. Goddard III,  
 A. Golubeva-Zadorozhnaya,  S. R. Gwaltney,  G. Hawkins,  A. Heyden,  
 S. Hirata,  G. Kedziora,  F. J. Keil,  C. Kelley,  Jihan Kim,  R. A. King,  
 R. Z. Khaliullin,  P. P. Korambath,  W. Kurlancheek,  A. M. Lee,  M. S. Lee,  
 S. V. Levchenko,  Ching Yeh Lin,  D. Liotard,  R. C. Lochan,  I. Lotan,  
 P. E. Maslen,  N. Nair,  D. P. O'Neill,  D. Neuhauser,  E. Neuscamman,  
 C. M. Oana,  R. Olson,  B. Peters,  R. Peverati,  P. A. Pieniazek,  
 Y. M. Rhee,  J. Ritchie,  M. A. Rohrdanz,  E. Rosta,  N. J. Russ,  
 H. F. Schaefer III,  N. E. Schultz,  N. Shenvi,  A. C. Simmonett,  A. Sodt,  
 D. Stuck,  K. S. Thanthiriwatte,  V. Vanovschi,  Tao Wang,  A. Warshel,  
 C. F. Williams,  Q. Wu,  X. Xu,  W. Zhang

 Please cite Q-Chem as follows:
 Y. Shao et al., Mol. Phys. 113, 184-215 (2015)
 DOI: 10.1080/00268976.2014.952696

 Q-Chem 5.1.1 for Intel X86 EM64T Linux

 Parts of Q-Chem use Armadillo 8.300.2 (Tropical Shenanigans).
 http://arma.sourceforge.net/

 Q-Chem begins on Sat Oct  3 14:04:44 2020  

Host: n0092.mhg0
0

     Scratch files written to /local/scratch/users/yhljason/CH3-_PTPSS-D3_aug-cc-pcVQZ.inp20201003135020//
The previous job contains 0 fragments, simply inherited here
Input Ideriv = 0
Curr. Ideriv = -1
Max.  Ideriv = 0
Analytic post-HF gradients are not available with non-HF exchange
Input Ideriv = 0
Curr. Ideriv = 0
Max.  Ideriv = 0

Checking the input file for inconsistencies... 	...done.

--------------------------------------------------------------
User input:
--------------------------------------------------------------
$molecule
read
$end

$rem

jobtype sp
method PTPSS-D3
xc_grid 000099000590
basis aug-cc-pcVQZ
max_scf_cycles 200
thresh 14
scf_convergence 8
mem_total 128000
cc_memory 96000
cc_backend xm
mem_static 1500
symmetry false
sym_ignore true
scf_guess read
unrestricted false
scf_algorithm gdm
n_frozen_core 0
$end

$multipole_field
XX -0.0001
$end


--------------------------------------------------------------
 Adding empirical dispersion correction 
 ----------------------------------------------------------------
 Doing -D3(0) with
 s6  =   0.75000
 s8  =   0.87900
 rs6 =   1.54100
 rs8 =   1.00000
 -D3 energy without 3body term =     -0.0000420200 hartrees
 ----------------------------------------------------------------
             Standard Nuclear Orientation (Angstroms)
    I     Atom           X                Y                Z
 ----------------------------------------------------------------
    1      C       0.0000000000     0.0000002206     0.0716704292
    2      H       0.0000000000     1.0378118041    -0.2899567231
    3      H       0.8987709644    -0.5189060123    -0.2899568531
    4      H      -0.8987709644    -0.5189060124    -0.2899568531
 ----------------------------------------------------------------
 Nuclear Repulsion Energy =     9.5501745798 hartrees
 There are        5 alpha and        5 beta electrons
 Requested basis set is aug-cc-pCVQZ
 There are 71 shells and 247 basis functions

 Total QAlloc Memory Limit 128000 MB
 Mega-Array Size      1467 MB
 MEM_STATIC part      1500 MB

                       Distance Matrix (Angstroms)
             C (  1)   H (  2)   H (  3)
   H (  2)  1.099012
   H (  3)  1.099012  1.797543
   H (  4)  1.099012  1.797543  1.797542
 
 Applying Cartesian multipole field
    Component          Value
    ---------          -----
     (2,0,0)       -1.00000E-04
 Nucleus-field energy     =    -0.0005769336 hartrees
 A cutoff of  1.0D-14 yielded   2556 shell pairs
 There are     31120 function pairs (     47305 Cartesian)
 
 -------------------------------------------------------
 OpenMP Integral Computing Module                       
 Release: version 1.0, May 2013, Q-Chem Inc. Pittsburgh 
 -------------------------------------------------------
 Integral Job Info:
 Integral job number is                      11
 Integral operator is                         1
 short-range coefficients                     0
 long-range coefficients              100000000
 Omega coefficients                           0
 if combine SR and LR in K                    0
 Integral screening is                        0
 Integral computing path is                   2
 max size of driver memory is           3200000
 size of driver memory is               1704330
 size of scratch memory is             18511652
 max col of scratch BK array              50625
 max len of scratch array in speh3         2114
 max len of scratch index in speh4           50
 max int batch size is                      520
 min int batch size is                       52
 fixed nKL is                                52
 max L of basis functions is                  4
 order of int derivative is                   0
 number of shells is                         71
 number of basis is                         304
 number of cartesian basis is               304
 number of contracted shell pairs          2556
 number of primitive shell pairs           4521
 maxK2 (contraction) of shell pair           81
 max number of K2 of shell pair               1
 max number of CS2 of shell pair            364
 max number of PS2 of shell pair            369
 mem total for path MDJ                  671149
 -------------------------------------------------------
 Smallest overlap matrix eigenvalue = 2.97E-05
 Guess MOs from SCF MO coefficient file

 -----------------------------------------------------------------------
  General SCF calculation program by
  Eric Jon Sundstrom, Paul Horn, Yuezhi Mao, Dmitri Zuev, Alec White,
  David Stuck, Shaama M.S., Shane Yost, Joonho Lee, David Small,
  Daniel Levine, Susi Lehtola, Hugh Burton, Evgeny Epifanovsky
 -----------------------------------------------------------------------
 Exchange:     0.5000 Hartree-Fock + 0.5000 PTPSS-D3
 Correlation:  0.6250 PTPSS-D3
 Using Euler-Maclaurin-Lebedev (99,590) quadrature formula
 Dispersion:   Grimme D3
 using 8 threads for integral computing
 -------------------------------------------------------
 OpenMP Integral computing Module                
 Release: version 2.0, May 2017, Q-Chem Inc. Pleasanton 
 -------------------------------------------------------
 -------------------------------------------------------
 OpenMP BLAS3 based DFT computing Module                
 Release: version 1.0, May 2013, Q-Chem Inc. Pittsburgh 
 -------------------------------------------------------
 A restricted SCF calculation will be
 performed using GDM
 SCF converges when RMS gradient is below 1.0e-08
 ---------------------------------------
  Cycle       Energy        RMS Gradient
 ---------------------------------------
    1     -39.7355307524      1.68e-03   Normal BFGS step
    2     -39.7355355191      6.85e-04   Normal BFGS step
    3     -39.7355377023      1.94e-04   Normal BFGS step
    4     -39.7355379305      4.82e-05   Normal BFGS step
    5     -39.7355379356      1.27e-05   Normal BFGS step
    6     -39.7355379363      1.72e-06   Normal BFGS step
    7     -39.7355379363      5.84e-07   Normal BFGS step
    8     -39.7355379363      2.62e-07   Normal BFGS step
    9     -39.7355379363      1.09e-07   Normal BFGS step
   10     -39.7355379363      3.14e-08   Normal BFGS step
   11     -39.7355379363      8.78e-09  Convergence criterion met
 ---------------------------------------
 SCF time:   CPU 1362.53s  wall 171.00s 
 SCF   energy in the final basis set =      -39.7355379363
 Total energy in the final basis set =      -39.7355379363
 
 Components of the MP2 correlation energy:
        aaaa  correlation energy =         0.0000000000 au
        abab  correlation energy =        -0.1015382305 au
        bbbb  correlation energy =         0.0000000000 au
        non-Brillouin singles    =        -0.0000000000 au

 Total  MP2   correlation energy =                    -0.10153823 au
        MP2         total energy =                   -39.83707617 au
 
 --------------------------------------------------------------
 
                    Orbital Energies (a.u.)
 --------------------------------------------------------------
 
 Alpha MOs
 -- Occupied --
-10.310  -0.490  -0.187  -0.187   0.028
 -- Virtual --
  0.132   0.141   0.145   0.197   0.225   0.227   0.247   0.310
  0.311   0.348   0.350   0.350   0.397   0.407   0.408   0.410
  0.418   0.424   0.424   0.454   0.455   0.468   0.524   0.525
  0.653   0.679   0.679   0.710   0.727   0.728   0.816   0.824
  0.844   0.844   0.867   0.871   0.871   0.889   0.901   0.901
  0.946   0.946   0.951   0.964   0.964   0.975   1.058   1.058
  1.058   1.142   1.142   1.219   1.220   1.238   1.277   1.286
  1.333   1.333   1.503   1.524   1.569   1.569   1.618   1.619
  1.652   1.742   1.742   1.873   1.873   1.876   1.878   1.930
  1.930   1.945   1.988   1.988   2.038   2.043   2.043   2.125
  2.129   2.129   2.178   2.189   2.189   2.192   2.193   2.210
  2.270   2.294   2.294   2.423   2.489   2.489   2.497   2.577
  2.600   2.600   2.713   2.755   2.755   2.821   2.821   2.844
  2.862   2.882   2.883   2.903   2.953   2.953   3.143   3.143
  3.181   3.264   3.264   3.507   3.508   3.508   3.639   3.698
  3.871   3.872   3.925   3.925   3.926   4.018   4.096   4.147
  4.147   4.210   4.210   4.317   4.317   4.380   4.380   4.585
  4.730   4.761   4.761   5.014   5.743   6.001   6.001   6.144
  6.144   6.309   6.309   6.313   6.323   6.515   6.515   6.515
  6.743   6.813   6.814   6.859   6.902   6.955   6.955   6.998
  6.998   7.105   7.105   7.151   7.232   7.312   7.312   7.459
  7.707   7.753   7.753   7.894   7.894   7.954   8.193   8.193
  8.322   8.362   8.362   8.555   8.624   8.624   8.701   8.701
  8.986   9.041   9.209   9.209   9.275   9.346   9.346   9.401
  9.401   9.408   9.641   9.651   9.651  10.009  10.130  10.130
 10.210  10.308  10.308  10.630  10.672  10.672  10.820  10.820
 11.376  11.470  12.823  12.823  14.182  19.820  21.078  21.078
 26.989  26.989  27.277  27.900  27.900  37.683  66.865  67.812
 67.812  98.530  98.552  98.552  98.570  98.570  98.576  98.611
115.108 115.108 115.235 115.564 115.564 123.382 224.971 225.752
225.752 509.772
 --------------------------------------------------------------
 
          Ground-State Mulliken Net Atomic Charges

     Atom                 Charge (a.u.)
  ----------------------------------------
      1 C                    -1.792663
      2 H                     0.259410
      3 H                     0.266627
      4 H                     0.266627
  ----------------------------------------
  Sum of atomic charges =    -1.000000

 -----------------------------------------------------------------
                    Cartesian Multipole Moments
 -----------------------------------------------------------------
    Charge (ESU x 10^10)
                -4.8032
    Dipole Moment (Debye)
         X       0.0000      Y      -0.0022      Z      -1.4596
       Tot       1.4596
    Quadrupole Moments (Debye-Ang)
        XX     -13.2425     XY       0.0000     YY     -13.2810
        XZ      -0.0000     YZ       0.0027     ZZ     -21.1889
    Octopole Moments (Debye-Ang^2)
       XXX       0.0000    XXY      -0.0982    XYY       0.0000
       YYY       0.0806    XXZ      -1.0259    XYZ       0.0000
       YYZ      -1.0265    XZZ       0.0000    YZZ      -0.0023
       ZZZ      -3.7406
    Hexadecapole Moments (Debye-Ang^3)
      XXXX     -39.0266   XXXY      -0.0000   XXYY     -13.0517
      XYYY      -0.0000   YYYY     -39.2881   XXXZ      -0.0000
      XXYZ       0.0134   XYYZ      -0.0000   YYYZ       0.0063
      XXZZ     -23.5344   XYZZ      -0.0000   YYZZ     -23.6266
      XZZZ      -0.0000   YZZZ       0.0164   ZZZZ    -101.6846
 -----------------------------------------------------------------
Archival summary:
1\1\n0092.mhg0\SP\ProcedureUnspecified\BasisUnspecified\13(1-,1)\yhljason\SatOct314:09:442020SatOct314:09:442020\0\\#,ProcedureUnspecified,BasisUnspecified,\\-1,1\C\H,1,1.09901\H,1,1.09901,2,109.73\H,1,1.09901,2,109.73,3,-120.64,0\\\@

 Total job time:  299.91s(wall), 2390.43s(cpu) 
 Sat Oct  3 14:09:44 2020

        *************************************************************
        *                                                           *
        *  Thank you very much for using Q-Chem.  Have a nice day.  *
        *                                                           *
        *************************************************************


 
User input: 5 of 8 
 
Q-Chem Developer Version!
                  Welcome to Q-Chem
     A Quantum Leap Into The Future Of Chemistry


 Q-Chem 5.1, Q-Chem, Inc., Pleasanton, CA (2018)

 Yihan Shao,  Zhengting Gan,  E. Epifanovsky,  A. T. B. Gilbert,  M. Wormit,  
 J. Kussmann,  A. W. Lange,  A. Behn,  Jia Deng,  Xintian Feng,  D. Ghosh,  
 M. Goldey,  P. R. Horn,  L. D. Jacobson,  I. Kaliman,  T. Kus,  A. Landau,  
 Jie Liu,  E. I. Proynov,  R. M. Richard,  R. P. Steele,  E. J. Sundstrom,  
 H. L. Woodcock III,  P. M. Zimmerman,  D. Zuev,  B. Albrecht,  E. Alguire,  
 S. A. Baeppler,  D. Barton,  Z. Benda,  Y. A. Bernard,  E. J. Berquist,  
 K. B. Bravaya,  H. Burton,  D. Casanova,  Chun-Min Chang,  Yunqing Chen,  
 A. Chien,  K. D. Closser,  M. P. Coons,  S. Coriani,  S. Dasgupta,  
 A. L. Dempwolff,  M. Diedenhofen,  Hainam Do,  R. G. Edgar,  Po-Tung Fang,  
 S. Faraji,  S. Fatehi,  Qingguo Feng,  K. D. Fenk,  J. Fosso-Tande,  
 Qinghui Ge,  A. Ghysels,  G. Gidofalvi,  J. Gomes,  J. Gonthier,  A. Gunina,  
 D. Hait,  M. W. D. Hanson-Heine,  P. H. P. Harbach,  A. W. Hauser,  
 J. E. Herr,  E. G. Hohenstein,  Z. C. Holden,  Kerwin Hui,  B. C. Huynh,  
 T.-C. Jagau,  Hyunjun Ji,  B. Kaduk,  K. Khistyaev,  Jaehoon Kim,  
 P. Klunzinger,  K. Koh,  D. Kosenkov,  L. Koulias,  T. Kowalczyk,  
 C. M. Krauter,  A. Kunitsa,  Ka Un Lao,  A. Laurent,  K. V. Lawler,  
 Joonho Lee,  D. Lefrancois,  S. Lehtola,  D. S. Levine,  Yi-Pei Li,  
 You-Sheng Lin,  Fenglai Liu,  E. Livshits,  A. Luenser,  P. Manohar,  
 E. Mansoor,  S. F. Manzer,  Shan-Ping Mao,  Yuezhi Mao,  N. Mardirossian,  
 A. V. Marenich,  T. Markovich,  L. A. Martinez-Martinez,  S. A. Maurer,  
 N. J. Mayhall,  S. C. McKenzie,  J.-M. Mewes,  A. F. Morrison,  
 J. W. Mullinax,  K. Nanda,  T. S. Nguyen-Beck,  R. Olivares-Amaya,  
 J. A. Parkhill,  T. M. Perrine,  F. Plasser,  P. Pokhilko,  S. Prager,  
 A. Prociuk,  E. Ramos,  D. R. Rehn,  F. Rob,  M. Schneider,  N. Sergueev,  
 S. M. Sharada,  S. Sharma,  D. W. Small,  T. Stauch,  T. Stein,  
 Yu-Chuan Su,  A. J. W. Thom,  A. Tkatchenko,  T. Tsuchimochi,  N. M. Tubman,  
 L. Vogt,  M. L. Vidal,  O. Vydrov,  M. A. Watson,  J. Wenzel,  
 M. de Wergifosse,  T. A. Wesolowski,  A. White,  J. Witte,  A. Yamada,  
 Jun Yang,  K. Yao,  S. Yeganeh,  S. R. Yost,  Zhi-Qiang You,  A. Zech,  
 Igor Ying Zhang,  Xing Zhang,  Yan Zhao,  Ying Zhu,  B. R. Brooks,  
 G. K. L. Chan,  C. J. Cramer,  M. S. Gordon,  W. J. Hehre,  A. Klamt,  
 M. W. Schmidt,  C. D. Sherrill,  D. G. Truhlar,  A. Aspuru-Guzik,  R. Baer,  
 A. T. Bell,  N. A. Besley,  Jeng-Da Chai,  A. E. DePrince, III,  
 R. A. DiStasio Jr.,  A. Dreuw,  B. D. Dunietz,  T. R. Furlani,  
 Chao-Ping Hsu,  Yousung Jung,  Jing Kong,  D. S. Lambrecht,  WanZhen Liang,  
 C. Ochsenfeld,  V. A. Rassolov,  L. V. Slipchenko,  J. E. Subotnik,  
 T. Van Voorhis,  J. M. Herbert,  A. I. Krylov,  P. M. W. Gill,  M. Head-Gordon

 Contributors to earlier versions of Q-Chem not listed above: 
 R. D. Adamson,  B. Austin,  J. Baker,  G. J. O. Beran,  K. Brandhorst,  
 S. T. Brown,  E. F. C. Byrd,  A. K. Chakraborty,  C.-L. Cheng,  
 Siu Hung Chien,  D. M. Chipman,  D. L. Crittenden,  H. Dachsel,  
 R. J. Doerksen,  A. D. Dutoi,  L. Fusti-Molnar,  W. A. Goddard III,  
 A. Golubeva-Zadorozhnaya,  S. R. Gwaltney,  G. Hawkins,  A. Heyden,  
 S. Hirata,  G. Kedziora,  F. J. Keil,  C. Kelley,  Jihan Kim,  R. A. King,  
 R. Z. Khaliullin,  P. P. Korambath,  W. Kurlancheek,  A. M. Lee,  M. S. Lee,  
 S. V. Levchenko,  Ching Yeh Lin,  D. Liotard,  R. C. Lochan,  I. Lotan,  
 P. E. Maslen,  N. Nair,  D. P. O'Neill,  D. Neuhauser,  E. Neuscamman,  
 C. M. Oana,  R. Olson,  B. Peters,  R. Peverati,  P. A. Pieniazek,  
 Y. M. Rhee,  J. Ritchie,  M. A. Rohrdanz,  E. Rosta,  N. J. Russ,  
 H. F. Schaefer III,  N. E. Schultz,  N. Shenvi,  A. C. Simmonett,  A. Sodt,  
 D. Stuck,  K. S. Thanthiriwatte,  V. Vanovschi,  Tao Wang,  A. Warshel,  
 C. F. Williams,  Q. Wu,  X. Xu,  W. Zhang

 Please cite Q-Chem as follows:
 Y. Shao et al., Mol. Phys. 113, 184-215 (2015)
 DOI: 10.1080/00268976.2014.952696

 Q-Chem 5.1.1 for Intel X86 EM64T Linux

 Parts of Q-Chem use Armadillo 8.300.2 (Tropical Shenanigans).
 http://arma.sourceforge.net/

 Q-Chem begins on Sat Oct  3 14:09:44 2020  

Host: n0092.mhg0
0

     Scratch files written to /local/scratch/users/yhljason/CH3-_PTPSS-D3_aug-cc-pcVQZ.inp20201003135020//
The previous job contains 0 fragments, simply inherited here
Input Ideriv = 0
Curr. Ideriv = -1
Max.  Ideriv = 0
Analytic post-HF gradients are not available with non-HF exchange
Input Ideriv = 0
Curr. Ideriv = 0
Max.  Ideriv = 0

Checking the input file for inconsistencies... 	...done.

--------------------------------------------------------------
User input:
--------------------------------------------------------------
$molecule
read
$end

$rem

jobtype sp
method PTPSS-D3
xc_grid 000099000590
basis aug-cc-pcVQZ
max_scf_cycles 200
thresh 14
scf_convergence 8
mem_total 128000
cc_memory 96000
cc_backend xm
mem_static 1500
symmetry false
sym_ignore true
scf_guess read
unrestricted false
scf_algorithm gdm
n_frozen_core 0
$end

$multipole_field
YY 0.0001
$end


--------------------------------------------------------------
 Adding empirical dispersion correction 
 ----------------------------------------------------------------
 Doing -D3(0) with
 s6  =   0.75000
 s8  =   0.87900
 rs6 =   1.54100
 rs8 =   1.00000
 -D3 energy without 3body term =     -0.0000420200 hartrees
 ----------------------------------------------------------------
             Standard Nuclear Orientation (Angstroms)
    I     Atom           X                Y                Z
 ----------------------------------------------------------------
    1      C       0.0000000000     0.0000002206     0.0716704292
    2      H       0.0000000000     1.0378118041    -0.2899567231
    3      H       0.8987709644    -0.5189060123    -0.2899568531
    4      H      -0.8987709644    -0.5189060124    -0.2899568531
 ----------------------------------------------------------------
 Nuclear Repulsion Energy =     9.5501745798 hartrees
 There are        5 alpha and        5 beta electrons
 Requested basis set is aug-cc-pCVQZ
 There are 71 shells and 247 basis functions

 Total QAlloc Memory Limit 128000 MB
 Mega-Array Size      1467 MB
 MEM_STATIC part      1500 MB

                       Distance Matrix (Angstroms)
             C (  1)   H (  2)   H (  3)
   H (  2)  1.099012
   H (  3)  1.099012  1.797543
   H (  4)  1.099012  1.797543  1.797542
 
 Applying Cartesian multipole field
    Component          Value
    ---------          -----
     (0,2,0)        1.00000E-04
 Nucleus-field energy     =     0.0005769342 hartrees
 A cutoff of  1.0D-14 yielded   2556 shell pairs
 There are     31120 function pairs (     47305 Cartesian)
 
 -------------------------------------------------------
 OpenMP Integral Computing Module                       
 Release: version 1.0, May 2013, Q-Chem Inc. Pittsburgh 
 -------------------------------------------------------
 Integral Job Info:
 Integral job number is                      11
 Integral operator is                         1
 short-range coefficients                     0
 long-range coefficients              100000000
 Omega coefficients                           0
 if combine SR and LR in K                    0
 Integral screening is                        0
 Integral computing path is                   2
 max size of driver memory is           3200000
 size of driver memory is               1704330
 size of scratch memory is             18511652
 max col of scratch BK array              50625
 max len of scratch array in speh3         2114
 max len of scratch index in speh4           50
 max int batch size is                      520
 min int batch size is                       52
 fixed nKL is                                52
 max L of basis functions is                  4
 order of int derivative is                   0
 number of shells is                         71
 number of basis is                         304
 number of cartesian basis is               304
 number of contracted shell pairs          2556
 number of primitive shell pairs           4521
 maxK2 (contraction) of shell pair           81
 max number of K2 of shell pair               1
 max number of CS2 of shell pair            364
 max number of PS2 of shell pair            369
 mem total for path MDJ                  671149
 -------------------------------------------------------
 Smallest overlap matrix eigenvalue = 2.97E-05
 Guess MOs from SCF MO coefficient file

 -----------------------------------------------------------------------
  General SCF calculation program by
  Eric Jon Sundstrom, Paul Horn, Yuezhi Mao, Dmitri Zuev, Alec White,
  David Stuck, Shaama M.S., Shane Yost, Joonho Lee, David Small,
  Daniel Levine, Susi Lehtola, Hugh Burton, Evgeny Epifanovsky
 -----------------------------------------------------------------------
 Exchange:     0.5000 Hartree-Fock + 0.5000 PTPSS-D3
 Correlation:  0.6250 PTPSS-D3
 Using Euler-Maclaurin-Lebedev (99,590) quadrature formula
 Dispersion:   Grimme D3
 using 8 threads for integral computing
 -------------------------------------------------------
 OpenMP Integral computing Module                
 Release: version 2.0, May 2017, Q-Chem Inc. Pleasanton 
 -------------------------------------------------------
 -------------------------------------------------------
 OpenMP BLAS3 based DFT computing Module                
 Release: version 1.0, May 2013, Q-Chem Inc. Pittsburgh 
 -------------------------------------------------------
 A restricted SCF calculation will be
 performed using GDM
 SCF converges when RMS gradient is below 1.0e-08
 ---------------------------------------
  Cycle       Energy        RMS Gradient
 ---------------------------------------
    1     -39.7375098958      1.67e-03   Normal BFGS step
    2     -39.7375119098      6.92e-04   Normal BFGS step
    3     -39.7375140759      7.84e-05   Normal BFGS step
    4     -39.7375141361      4.96e-05   Normal BFGS step
    5     -39.7375141414      1.10e-05   Normal BFGS step
    6     -39.7375141419      1.70e-06   Normal BFGS step
    7     -39.7375141419      5.51e-07   Normal BFGS step
    8     -39.7375141419      3.44e-07   Normal BFGS step
    9     -39.7375141419      1.26e-07   Normal BFGS step
   10     -39.7375141419      3.07e-08   Normal BFGS step
   11     -39.7375141419      7.34e-09  Convergence criterion met
 ---------------------------------------
 SCF time:   CPU 1340.05s  wall 168.00s 
 SCF   energy in the final basis set =      -39.7375141419
 Total energy in the final basis set =      -39.7375141419
 
 Components of the MP2 correlation energy:
        aaaa  correlation energy =         0.0000000000 au
        abab  correlation energy =        -0.1015985740 au
        bbbb  correlation energy =         0.0000000000 au
        non-Brillouin singles    =        -0.0000000000 au

 Total  MP2   correlation energy =                    -0.10159857 au
        MP2         total energy =                   -39.83911272 au
 
 --------------------------------------------------------------
 
                    Orbital Energies (a.u.)
 --------------------------------------------------------------
 
 Alpha MOs
 -- Occupied --
-10.312  -0.491  -0.188  -0.188   0.027
 -- Virtual --
  0.126   0.133   0.136   0.195   0.219   0.221   0.243   0.306
  0.307   0.346   0.347   0.348   0.395   0.403   0.404   0.406
  0.415   0.421   0.422   0.451   0.452   0.465   0.521   0.522
  0.651   0.676   0.676   0.708   0.726   0.726   0.813   0.822
  0.842   0.842   0.866   0.869   0.869   0.886   0.898   0.899
  0.944   0.944   0.949   0.962   0.962   0.973   1.056   1.056
  1.057   1.140   1.140   1.218   1.218   1.236   1.275   1.284
  1.331   1.331   1.501   1.522   1.567   1.567   1.616   1.617
  1.650   1.740   1.740   1.871   1.871   1.874   1.876   1.929
  1.929   1.944   1.987   1.987   2.037   2.042   2.042   2.124
  2.127   2.127   2.176   2.187   2.188   2.191   2.191   2.208
  2.269   2.292   2.292   2.422   2.487   2.488   2.496   2.576
  2.599   2.599   2.711   2.753   2.753   2.819   2.819   2.843
  2.860   2.881   2.881   2.902   2.952   2.952   3.142   3.142
  3.180   3.262   3.262   3.506   3.506   3.506   3.638   3.696
  3.870   3.870   3.924   3.924   3.924   4.016   4.094   4.146
  4.146   4.208   4.209   4.315   4.316   4.379   4.379   4.584
  4.728   4.760   4.760   5.012   5.741   6.000   6.000   6.143
  6.143   6.308   6.308   6.312   6.321   6.513   6.513   6.514
  6.741   6.812   6.812   6.857   6.900   6.954   6.954   6.996
  6.996   7.103   7.103   7.150   7.231   7.311   7.311   7.457
  7.706   7.751   7.751   7.893   7.893   7.952   8.192   8.192
  8.321   8.361   8.361   8.554   8.622   8.622   8.700   8.700
  8.984   9.039   9.207   9.207   9.274   9.344   9.344   9.399
  9.399   9.406   9.640   9.650   9.650  10.008  10.129  10.129
 10.208  10.306  10.306  10.629  10.671  10.671  10.818  10.818
 11.374  11.468  12.822  12.822  14.180  19.818  21.077  21.077
 26.987  26.987  27.275  27.898  27.898  37.681  66.863  67.811
 67.811  98.529  98.550  98.550  98.568  98.568  98.574  98.609
115.106 115.106 115.233 115.563 115.563 123.380 224.970 225.750
225.750 509.770
 --------------------------------------------------------------
 
          Ground-State Mulliken Net Atomic Charges

     Atom                 Charge (a.u.)
  ----------------------------------------
      1 C                    -1.804623
      2 H                     0.263300
      3 H                     0.270662
      4 H                     0.270662
  ----------------------------------------
  Sum of atomic charges =    -1.000000

 -----------------------------------------------------------------
                    Cartesian Multipole Moments
 -----------------------------------------------------------------
    Charge (ESU x 10^10)
                -4.8032
    Dipole Moment (Debye)
         X       0.0000      Y      -0.0023      Z      -1.4599
       Tot       1.4599
    Quadrupole Moments (Debye-Ang)
        XX     -13.2995     XY       0.0000     YY     -13.3386
        XZ      -0.0000     YZ       0.0030     ZZ     -21.3162
    Octopole Moments (Debye-Ang^2)
       XXX       0.0000    XXY      -0.0951    XYY       0.0000
       YYY       0.0768    XXZ      -1.0383    XYZ       0.0000
       YYZ      -1.0387    XZZ       0.0000    YZZ      -0.0025
       ZZZ      -3.7677
    Hexadecapole Moments (Debye-Ang^3)
      XXXX     -39.4858   XXXY      -0.0000   XXYY     -13.2058
      XYYY      -0.0000   YYYY     -39.7534   XXXZ      -0.0000
      XXYZ      -0.0001   XYYZ      -0.0000   YYYZ       0.0232
      XXZZ     -23.9095   XYZZ      -0.0000   YYZZ     -24.0039
      XZZZ      -0.0000   YZZZ       0.0189   ZZZZ    -103.4846
 -----------------------------------------------------------------
Archival summary:
1\1\n0092.mhg0\SP\ProcedureUnspecified\BasisUnspecified\13(1-,1)\yhljason\SatOct314:14:342020SatOct314:14:342020\0\\#,ProcedureUnspecified,BasisUnspecified,\\-1,1\C\H,1,1.09901\H,1,1.09901,2,109.73\H,1,1.09901,2,109.73,3,-120.64,0\\\@

 Total job time:  290.47s(wall), 2313.64s(cpu) 
 Sat Oct  3 14:14:34 2020

        *************************************************************
        *                                                           *
        *  Thank you very much for using Q-Chem.  Have a nice day.  *
        *                                                           *
        *************************************************************


 
User input: 6 of 8 
 
Q-Chem Developer Version!
                  Welcome to Q-Chem
     A Quantum Leap Into The Future Of Chemistry


 Q-Chem 5.1, Q-Chem, Inc., Pleasanton, CA (2018)

 Yihan Shao,  Zhengting Gan,  E. Epifanovsky,  A. T. B. Gilbert,  M. Wormit,  
 J. Kussmann,  A. W. Lange,  A. Behn,  Jia Deng,  Xintian Feng,  D. Ghosh,  
 M. Goldey,  P. R. Horn,  L. D. Jacobson,  I. Kaliman,  T. Kus,  A. Landau,  
 Jie Liu,  E. I. Proynov,  R. M. Richard,  R. P. Steele,  E. J. Sundstrom,  
 H. L. Woodcock III,  P. M. Zimmerman,  D. Zuev,  B. Albrecht,  E. Alguire,  
 S. A. Baeppler,  D. Barton,  Z. Benda,  Y. A. Bernard,  E. J. Berquist,  
 K. B. Bravaya,  H. Burton,  D. Casanova,  Chun-Min Chang,  Yunqing Chen,  
 A. Chien,  K. D. Closser,  M. P. Coons,  S. Coriani,  S. Dasgupta,  
 A. L. Dempwolff,  M. Diedenhofen,  Hainam Do,  R. G. Edgar,  Po-Tung Fang,  
 S. Faraji,  S. Fatehi,  Qingguo Feng,  K. D. Fenk,  J. Fosso-Tande,  
 Qinghui Ge,  A. Ghysels,  G. Gidofalvi,  J. Gomes,  J. Gonthier,  A. Gunina,  
 D. Hait,  M. W. D. Hanson-Heine,  P. H. P. Harbach,  A. W. Hauser,  
 J. E. Herr,  E. G. Hohenstein,  Z. C. Holden,  Kerwin Hui,  B. C. Huynh,  
 T.-C. Jagau,  Hyunjun Ji,  B. Kaduk,  K. Khistyaev,  Jaehoon Kim,  
 P. Klunzinger,  K. Koh,  D. Kosenkov,  L. Koulias,  T. Kowalczyk,  
 C. M. Krauter,  A. Kunitsa,  Ka Un Lao,  A. Laurent,  K. V. Lawler,  
 Joonho Lee,  D. Lefrancois,  S. Lehtola,  D. S. Levine,  Yi-Pei Li,  
 You-Sheng Lin,  Fenglai Liu,  E. Livshits,  A. Luenser,  P. Manohar,  
 E. Mansoor,  S. F. Manzer,  Shan-Ping Mao,  Yuezhi Mao,  N. Mardirossian,  
 A. V. Marenich,  T. Markovich,  L. A. Martinez-Martinez,  S. A. Maurer,  
 N. J. Mayhall,  S. C. McKenzie,  J.-M. Mewes,  A. F. Morrison,  
 J. W. Mullinax,  K. Nanda,  T. S. Nguyen-Beck,  R. Olivares-Amaya,  
 J. A. Parkhill,  T. M. Perrine,  F. Plasser,  P. Pokhilko,  S. Prager,  
 A. Prociuk,  E. Ramos,  D. R. Rehn,  F. Rob,  M. Schneider,  N. Sergueev,  
 S. M. Sharada,  S. Sharma,  D. W. Small,  T. Stauch,  T. Stein,  
 Yu-Chuan Su,  A. J. W. Thom,  A. Tkatchenko,  T. Tsuchimochi,  N. M. Tubman,  
 L. Vogt,  M. L. Vidal,  O. Vydrov,  M. A. Watson,  J. Wenzel,  
 M. de Wergifosse,  T. A. Wesolowski,  A. White,  J. Witte,  A. Yamada,  
 Jun Yang,  K. Yao,  S. Yeganeh,  S. R. Yost,  Zhi-Qiang You,  A. Zech,  
 Igor Ying Zhang,  Xing Zhang,  Yan Zhao,  Ying Zhu,  B. R. Brooks,  
 G. K. L. Chan,  C. J. Cramer,  M. S. Gordon,  W. J. Hehre,  A. Klamt,  
 M. W. Schmidt,  C. D. Sherrill,  D. G. Truhlar,  A. Aspuru-Guzik,  R. Baer,  
 A. T. Bell,  N. A. Besley,  Jeng-Da Chai,  A. E. DePrince, III,  
 R. A. DiStasio Jr.,  A. Dreuw,  B. D. Dunietz,  T. R. Furlani,  
 Chao-Ping Hsu,  Yousung Jung,  Jing Kong,  D. S. Lambrecht,  WanZhen Liang,  
 C. Ochsenfeld,  V. A. Rassolov,  L. V. Slipchenko,  J. E. Subotnik,  
 T. Van Voorhis,  J. M. Herbert,  A. I. Krylov,  P. M. W. Gill,  M. Head-Gordon

 Contributors to earlier versions of Q-Chem not listed above: 
 R. D. Adamson,  B. Austin,  J. Baker,  G. J. O. Beran,  K. Brandhorst,  
 S. T. Brown,  E. F. C. Byrd,  A. K. Chakraborty,  C.-L. Cheng,  
 Siu Hung Chien,  D. M. Chipman,  D. L. Crittenden,  H. Dachsel,  
 R. J. Doerksen,  A. D. Dutoi,  L. Fusti-Molnar,  W. A. Goddard III,  
 A. Golubeva-Zadorozhnaya,  S. R. Gwaltney,  G. Hawkins,  A. Heyden,  
 S. Hirata,  G. Kedziora,  F. J. Keil,  C. Kelley,  Jihan Kim,  R. A. King,  
 R. Z. Khaliullin,  P. P. Korambath,  W. Kurlancheek,  A. M. Lee,  M. S. Lee,  
 S. V. Levchenko,  Ching Yeh Lin,  D. Liotard,  R. C. Lochan,  I. Lotan,  
 P. E. Maslen,  N. Nair,  D. P. O'Neill,  D. Neuhauser,  E. Neuscamman,  
 C. M. Oana,  R. Olson,  B. Peters,  R. Peverati,  P. A. Pieniazek,  
 Y. M. Rhee,  J. Ritchie,  M. A. Rohrdanz,  E. Rosta,  N. J. Russ,  
 H. F. Schaefer III,  N. E. Schultz,  N. Shenvi,  A. C. Simmonett,  A. Sodt,  
 D. Stuck,  K. S. Thanthiriwatte,  V. Vanovschi,  Tao Wang,  A. Warshel,  
 C. F. Williams,  Q. Wu,  X. Xu,  W. Zhang

 Please cite Q-Chem as follows:
 Y. Shao et al., Mol. Phys. 113, 184-215 (2015)
 DOI: 10.1080/00268976.2014.952696

 Q-Chem 5.1.1 for Intel X86 EM64T Linux

 Parts of Q-Chem use Armadillo 8.300.2 (Tropical Shenanigans).
 http://arma.sourceforge.net/

 Q-Chem begins on Sat Oct  3 14:14:34 2020  

Host: n0092.mhg0
0

     Scratch files written to /local/scratch/users/yhljason/CH3-_PTPSS-D3_aug-cc-pcVQZ.inp20201003135020//
The previous job contains 0 fragments, simply inherited here
Input Ideriv = 0
Curr. Ideriv = -1
Max.  Ideriv = 0
Analytic post-HF gradients are not available with non-HF exchange
Input Ideriv = 0
Curr. Ideriv = 0
Max.  Ideriv = 0

Checking the input file for inconsistencies... 	...done.

--------------------------------------------------------------
User input:
--------------------------------------------------------------
$molecule
read
$end

$rem

jobtype sp
method PTPSS-D3
xc_grid 000099000590
basis aug-cc-pcVQZ
max_scf_cycles 200
thresh 14
scf_convergence 8
mem_total 128000
cc_memory 96000
cc_backend xm
mem_static 1500
symmetry false
sym_ignore true
scf_guess read
unrestricted false
scf_algorithm gdm
n_frozen_core 0
$end

$multipole_field
YY -0.0001
$end


--------------------------------------------------------------
 Adding empirical dispersion correction 
 ----------------------------------------------------------------
 Doing -D3(0) with
 s6  =   0.75000
 s8  =   0.87900
 rs6 =   1.54100
 rs8 =   1.00000
 -D3 energy without 3body term =     -0.0000420200 hartrees
 ----------------------------------------------------------------
             Standard Nuclear Orientation (Angstroms)
    I     Atom           X                Y                Z
 ----------------------------------------------------------------
    1      C       0.0000000000     0.0000002206     0.0716704292
    2      H       0.0000000000     1.0378118041    -0.2899567231
    3      H       0.8987709644    -0.5189060123    -0.2899568531
    4      H      -0.8987709644    -0.5189060124    -0.2899568531
 ----------------------------------------------------------------
 Nuclear Repulsion Energy =     9.5501745798 hartrees
 There are        5 alpha and        5 beta electrons
 Requested basis set is aug-cc-pCVQZ
 There are 71 shells and 247 basis functions

 Total QAlloc Memory Limit 128000 MB
 Mega-Array Size      1467 MB
 MEM_STATIC part      1500 MB

                       Distance Matrix (Angstroms)
             C (  1)   H (  2)   H (  3)
   H (  2)  1.099012
   H (  3)  1.099012  1.797543
   H (  4)  1.099012  1.797543  1.797542
 
 Applying Cartesian multipole field
    Component          Value
    ---------          -----
     (0,2,0)       -1.00000E-04
 Nucleus-field energy     =    -0.0005769342 hartrees
 A cutoff of  1.0D-14 yielded   2556 shell pairs
 There are     31120 function pairs (     47305 Cartesian)
 
 -------------------------------------------------------
 OpenMP Integral Computing Module                       
 Release: version 1.0, May 2013, Q-Chem Inc. Pittsburgh 
 -------------------------------------------------------
 Integral Job Info:
 Integral job number is                      11
 Integral operator is                         1
 short-range coefficients                     0
 long-range coefficients              100000000
 Omega coefficients                           0
 if combine SR and LR in K                    0
 Integral screening is                        0
 Integral computing path is                   2
 max size of driver memory is           3200000
 size of driver memory is               1704330
 size of scratch memory is             18511652
 max col of scratch BK array              50625
 max len of scratch array in speh3         2114
 max len of scratch index in speh4           50
 max int batch size is                      520
 min int batch size is                       52
 fixed nKL is                                52
 max L of basis functions is                  4
 order of int derivative is                   0
 number of shells is                         71
 number of basis is                         304
 number of cartesian basis is               304
 number of contracted shell pairs          2556
 number of primitive shell pairs           4521
 maxK2 (contraction) of shell pair           81
 max number of K2 of shell pair               1
 max number of CS2 of shell pair            364
 max number of PS2 of shell pair            369
 mem total for path MDJ                  671149
 -------------------------------------------------------
 Smallest overlap matrix eigenvalue = 2.97E-05
 Guess MOs from SCF MO coefficient file

 -----------------------------------------------------------------------
  General SCF calculation program by
  Eric Jon Sundstrom, Paul Horn, Yuezhi Mao, Dmitri Zuev, Alec White,
  David Stuck, Shaama M.S., Shane Yost, Joonho Lee, David Small,
  Daniel Levine, Susi Lehtola, Hugh Burton, Evgeny Epifanovsky
 -----------------------------------------------------------------------
 Exchange:     0.5000 Hartree-Fock + 0.5000 PTPSS-D3
 Correlation:  0.6250 PTPSS-D3
 Using Euler-Maclaurin-Lebedev (99,590) quadrature formula
 Dispersion:   Grimme D3
 using 8 threads for integral computing
 -------------------------------------------------------
 OpenMP Integral computing Module                
 Release: version 2.0, May 2017, Q-Chem Inc. Pleasanton 
 -------------------------------------------------------
 -------------------------------------------------------
 OpenMP BLAS3 based DFT computing Module                
 Release: version 1.0, May 2013, Q-Chem Inc. Pittsburgh 
 -------------------------------------------------------
 A restricted SCF calculation will be
 performed using GDM
 SCF converges when RMS gradient is below 1.0e-08
 ---------------------------------------
  Cycle       Energy        RMS Gradient
 ---------------------------------------
    1     -39.7355307525      1.68e-03   Normal BFGS step
    2     -39.7355355193      6.85e-04   Normal BFGS step
    3     -39.7355377025      1.94e-04   Normal BFGS step
    4     -39.7355379307      4.82e-05   Normal BFGS step
    5     -39.7355379358      1.27e-05   Normal BFGS step
    6     -39.7355379365      1.72e-06   Normal BFGS step
    7     -39.7355379366      4.95e-07   Normal BFGS step
    8     -39.7355379366      2.76e-07   Normal BFGS step
    9     -39.7355379366      1.15e-07   Normal BFGS step
   10     -39.7355379366      3.22e-08   Normal BFGS step
   11     -39.7355379366      9.64e-09  Convergence criterion met
 ---------------------------------------
 SCF time:   CPU 1317.05s  wall 165.00s 
 SCF   energy in the final basis set =      -39.7355379366
 Total energy in the final basis set =      -39.7355379366
 
 Components of the MP2 correlation energy:
        aaaa  correlation energy =         0.0000000000 au
        abab  correlation energy =        -0.1015382304 au
        bbbb  correlation energy =         0.0000000000 au
        non-Brillouin singles    =        -0.0000000000 au

 Total  MP2   correlation energy =                    -0.10153823 au
        MP2         total energy =                   -39.83707617 au
 
 --------------------------------------------------------------
 
                    Orbital Energies (a.u.)
 --------------------------------------------------------------
 
 Alpha MOs
 -- Occupied --
-10.310  -0.490  -0.187  -0.187   0.028
 -- Virtual --
  0.132   0.141   0.145   0.197   0.225   0.227   0.247   0.310
  0.311   0.348   0.350   0.350   0.397   0.407   0.408   0.410
  0.418   0.424   0.424   0.454   0.455   0.468   0.524   0.525
  0.653   0.679   0.679   0.710   0.727   0.728   0.816   0.824
  0.844   0.844   0.867   0.871   0.871   0.889   0.901   0.901
  0.946   0.946   0.951   0.964   0.964   0.975   1.058   1.058
  1.058   1.142   1.142   1.219   1.220   1.238   1.277   1.286
  1.333   1.333   1.503   1.524   1.569   1.569   1.618   1.619
  1.652   1.742   1.742   1.873   1.873   1.876   1.878   1.930
  1.930   1.945   1.988   1.988   2.038   2.043   2.043   2.125
  2.129   2.129   2.178   2.189   2.189   2.192   2.193   2.210
  2.270   2.294   2.294   2.423   2.489   2.489   2.497   2.577
  2.600   2.600   2.713   2.755   2.755   2.821   2.821   2.844
  2.862   2.882   2.883   2.903   2.953   2.953   3.143   3.143
  3.181   3.264   3.264   3.507   3.507   3.508   3.639   3.698
  3.871   3.872   3.925   3.925   3.926   4.018   4.096   4.147
  4.147   4.210   4.210   4.317   4.317   4.380   4.380   4.585
  4.730   4.761   4.761   5.014   5.743   6.001   6.001   6.144
  6.144   6.309   6.309   6.313   6.323   6.515   6.515   6.515
  6.743   6.813   6.814   6.859   6.902   6.955   6.955   6.998
  6.998   7.105   7.105   7.151   7.232   7.312   7.312   7.459
  7.707   7.753   7.753   7.894   7.894   7.954   8.193   8.193
  8.322   8.362   8.362   8.555   8.624   8.624   8.701   8.701
  8.986   9.041   9.209   9.209   9.275   9.346   9.346   9.401
  9.401   9.408   9.641   9.651   9.651  10.009  10.130  10.130
 10.210  10.308  10.308  10.630  10.672  10.672  10.820  10.820
 11.376  11.470  12.823  12.823  14.182  19.820  21.078  21.078
 26.989  26.989  27.277  27.900  27.900  37.683  66.865  67.812
 67.812  98.530  98.552  98.552  98.570  98.570  98.576  98.611
115.108 115.108 115.235 115.564 115.564 123.382 224.971 225.752
225.752 509.772
 --------------------------------------------------------------
 
          Ground-State Mulliken Net Atomic Charges

     Atom                 Charge (a.u.)
  ----------------------------------------
      1 C                    -1.792663
      2 H                     0.269038
      3 H                     0.261813
      4 H                     0.261813
  ----------------------------------------
  Sum of atomic charges =    -1.000000

 -----------------------------------------------------------------
                    Cartesian Multipole Moments
 -----------------------------------------------------------------
    Charge (ESU x 10^10)
                -4.8032
    Dipole Moment (Debye)
         X       0.0000      Y       0.0022      Z      -1.4596
       Tot       1.4596
    Quadrupole Moments (Debye-Ang)
        XX     -13.2810     XY       0.0000     YY     -13.2425
        XZ      -0.0000     YZ      -0.0027     ZZ     -21.1889
    Octopole Moments (Debye-Ang^2)
       XXX       0.0000    XXY      -0.0894    XYY       0.0000
       YYY       0.1070    XXZ      -1.0265    XYZ       0.0000
       YYZ      -1.0259    XZZ       0.0000    YZZ       0.0022
       ZZZ      -3.7406
    Hexadecapole Moments (Debye-Ang^3)
      XXXX     -39.2871   XXXY      -0.0000   XXYY     -13.0527
      XYYY      -0.0000   YYYY     -39.0256   XXXZ      -0.0000
      XXYZ       0.0036   XYYZ      -0.0000   YYYZ      -0.0228
      XXZZ     -23.6266   XYZZ      -0.0000   YYZZ     -23.5344
      XZZZ      -0.0000   YZZZ      -0.0160   ZZZZ    -101.6846
 -----------------------------------------------------------------
Archival summary:
1\1\n0092.mhg0\SP\ProcedureUnspecified\BasisUnspecified\13(1-,1)\yhljason\SatOct314:19:272020SatOct314:19:272020\0\\#,ProcedureUnspecified,BasisUnspecified,\\-1,1\C\H,1,1.09901\H,1,1.09901,2,109.73\H,1,1.09901,2,109.73,3,-120.64,0\\\@

 Total job time:  292.22s(wall), 2331.41s(cpu) 
 Sat Oct  3 14:19:27 2020

        *************************************************************
        *                                                           *
        *  Thank you very much for using Q-Chem.  Have a nice day.  *
        *                                                           *
        *************************************************************


 
User input: 7 of 8 
 
Q-Chem Developer Version!
                  Welcome to Q-Chem
     A Quantum Leap Into The Future Of Chemistry


 Q-Chem 5.1, Q-Chem, Inc., Pleasanton, CA (2018)

 Yihan Shao,  Zhengting Gan,  E. Epifanovsky,  A. T. B. Gilbert,  M. Wormit,  
 J. Kussmann,  A. W. Lange,  A. Behn,  Jia Deng,  Xintian Feng,  D. Ghosh,  
 M. Goldey,  P. R. Horn,  L. D. Jacobson,  I. Kaliman,  T. Kus,  A. Landau,  
[...]
-10.313  -0.492  -0.189  -0.189   0.026
 -- Virtual --
  0.126   0.137   0.137   0.192   0.221   0.221   0.243   0.307
  0.307   0.345   0.347   0.347   0.394   0.404   0.404   0.407
  0.415   0.421   0.421   0.451   0.451   0.465   0.521   0.521
  0.650   0.676   0.676   0.707   0.725   0.725   0.814   0.822
  0.842   0.842   0.865   0.869   0.869   0.886   0.899   0.899
  0.944   0.944   0.949   0.961   0.961   0.973   1.056   1.056
  1.056   1.139   1.139   1.217   1.217   1.236   1.274   1.283
  1.331   1.331   1.501   1.521   1.566   1.566   1.616   1.616
  1.650   1.740   1.740   1.871   1.871   1.874   1.876   1.928
  1.928   1.943   1.986   1.986   2.036   2.041   2.041   2.123
  2.126   2.126   2.176   2.187   2.187   2.190   2.190   2.208
  2.268   2.292   2.292   2.421   2.487   2.487   2.495   2.575
  2.598   2.598   2.711   2.752   2.752   2.818   2.818   2.842
  2.859   2.880   2.880   2.901   2.951   2.951   3.141   3.141
  3.179   3.262   3.262   3.505   3.505   3.505   3.637   3.696
  3.869   3.869   3.923   3.923   3.923   4.016   4.094   4.145
  4.145   4.208   4.208   4.315   4.315   4.378   4.378   4.583
  4.727   4.759   4.759   5.012   5.740   5.999   5.999   6.142
  6.142   6.307   6.307   6.311   6.320   6.512   6.512   6.512
  6.740   6.811   6.811   6.856   6.899   6.953   6.953   6.995
  6.995   7.102   7.102   7.149   7.230   7.310   7.310   7.456
  7.705   7.750   7.750   7.892   7.892   7.951   8.191   8.191
  8.320   8.360   8.360   8.553   8.622   8.622   8.699   8.699
  8.983   9.038   9.206   9.206   9.273   9.343   9.343   9.398
  9.398   9.406   9.639   9.649   9.649  10.007  10.128  10.128
 10.207  10.305  10.305  10.628  10.670  10.670  10.817  10.817
 11.373  11.467  12.820  12.820  14.179  19.816  21.075  21.075
 26.986  26.986  27.274  27.897  27.897  37.680  66.862  67.809
 67.809  98.527  98.549  98.549  98.567  98.567  98.573  98.608
115.105 115.105 115.231 115.561 115.561 123.379 224.968 225.749
225.749 509.769
 --------------------------------------------------------------
 
          Ground-State Mulliken Net Atomic Charges

     Atom                 Charge (a.u.)
  ----------------------------------------
      1 C                    -1.865449
      2 H                     0.288484
      3 H                     0.288482
      4 H                     0.288482
  ----------------------------------------
  Sum of atomic charges =    -1.000000

 -----------------------------------------------------------------
                    Cartesian Multipole Moments
 -----------------------------------------------------------------
    Charge (ESU x 10^10)
                -4.8032
    Dipole Moment (Debye)
         X       0.0000      Y      -0.0000      Z      -1.4602
       Tot       1.4602
    Quadrupole Moments (Debye-Ang)
        XX     -13.3562     XY       0.0000     YY     -13.3562
        XZ      -0.0000     YZ      -0.0000     ZZ     -21.5982
    Octopole Moments (Debye-Ang^2)
       XXX       0.0000    XXY      -0.1113    XYY       0.0000
       YYY       0.1113    XXZ      -1.0499    XYZ       0.0000
       YYZ      -1.0499    XZZ       0.0000    YZZ      -0.0000
       ZZZ      -3.8161
    Hexadecapole Moments (Debye-Ang^3)
      XXXX     -40.0776   XXXY      -0.0000   XXYY     -13.3592
      XYYY      -0.0000   YYYY     -40.0776   XXXZ      -0.0000
      XXYZ       0.0028   XYYZ      -0.0000   YYYZ      -0.0028
      XXZZ     -24.6461   XYZZ      -0.0000   YYZZ     -24.6461
      XZZZ      -0.0000   YZZZ      -0.0000   ZZZZ    -107.5994
 -----------------------------------------------------------------
Archival summary:
1\1\n0092.mhg0\SP\ProcedureUnspecified\BasisUnspecified\13(1-,1)\yhljason\SatOct314:24:272020SatOct314:24:272020\0\\#,ProcedureUnspecified,BasisUnspecified,\\-1,1\C\H,1,1.09901\H,1,1.09901,2,109.73\H,1,1.09901,2,109.73,3,-120.64,0\\\@

 Total job time:  299.86s(wall), 2392.05s(cpu) 
 Sat Oct  3 14:24:27 2020

        *************************************************************
        *                                                           *
        *  Thank you very much for using Q-Chem.  Have a nice day.  *
        *                                                           *
        *************************************************************


 
User input: 8 of 8 
 
Q-Chem Developer Version!
                  Welcome to Q-Chem
     A Quantum Leap Into The Future Of Chemistry


 Q-Chem 5.1, Q-Chem, Inc., Pleasanton, CA (2018)

 Yihan Shao,  Zhengting Gan,  E. Epifanovsky,  A. T. B. Gilbert,  M. Wormit,  
 J. Kussmann,  A. W. Lange,  A. Behn,  Jia Deng,  Xintian Feng,  D. Ghosh,  
 M. Goldey,  P. R. Horn,  L. D. Jacobson,  I. Kaliman,  T. Kus,  A. Landau,  
 Jie Liu,  E. I. Proynov,  R. M. Richard,  R. P. Steele,  E. J. Sundstrom,  
 H. L. Woodcock III,  P. M. Zimmerman,  D. Zuev,  B. Albrecht,  E. Alguire,  
 S. A. Baeppler,  D. Barton,  Z. Benda,  Y. A. Bernard,  E. J. Berquist,  
 K. B. Bravaya,  H. Burton,  D. Casanova,  Chun-Min Chang,  Yunqing Chen,  
 A. Chien,  K. D. Closser,  M. P. Coons,  S. Coriani,  S. Dasgupta,  
 A. L. Dempwolff,  M. Diedenhofen,  Hainam Do,  R. G. Edgar,  Po-Tung Fang,  
 S. Faraji,  S. Fatehi,  Qingguo Feng,  K. D. Fenk,  J. Fosso-Tande,  
 Qinghui Ge,  A. Ghysels,  G. Gidofalvi,  J. Gomes,  J. Gonthier,  A. Gunina,  
 D. Hait,  M. W. D. Hanson-Heine,  P. H. P. Harbach,  A. W. Hauser,  
 J. E. Herr,  E. G. Hohenstein,  Z. C. Holden,  Kerwin Hui,  B. C. Huynh,  
 T.-C. Jagau,  Hyunjun Ji,  B. Kaduk,  K. Khistyaev,  Jaehoon Kim,  
 P. Klunzinger,  K. Koh,  D. Kosenkov,  L. Koulias,  T. Kowalczyk,  
 C. M. Krauter,  A. Kunitsa,  Ka Un Lao,  A. Laurent,  K. V. Lawler,  
 Joonho Lee,  D. Lefrancois,  S. Lehtola,  D. S. Levine,  Yi-Pei Li,  
 You-Sheng Lin,  Fenglai Liu,  E. Livshits,  A. Luenser,  P. Manohar,  
 E. Mansoor,  S. F. Manzer,  Shan-Ping Mao,  Yuezhi Mao,  N. Mardirossian,  
 A. V. Marenich,  T. Markovich,  L. A. Martinez-Martinez,  S. A. Maurer,  
 N. J. Mayhall,  S. C. McKenzie,  J.-M. Mewes,  A. F. Morrison,  
 J. W. Mullinax,  K. Nanda,  T. S. Nguyen-Beck,  R. Olivares-Amaya,  
 J. A. Parkhill,  T. M. Perrine,  F. Plasser,  P. Pokhilko,  S. Prager,  
 A. Prociuk,  E. Ramos,  D. R. Rehn,  F. Rob,  M. Schneider,  N. Sergueev,  
 S. M. Sharada,  S. Sharma,  D. W. Small,  T. Stauch,  T. Stein,  
 Yu-Chuan Su,  A. J. W. Thom,  A. Tkatchenko,  T. Tsuchimochi,  N. M. Tubman,  
 L. Vogt,  M. L. Vidal,  O. Vydrov,  M. A. Watson,  J. Wenzel,  
 M. de Wergifosse,  T. A. Wesolowski,  A. White,  J. Witte,  A. Yamada,  
 Jun Yang,  K. Yao,  S. Yeganeh,  S. R. Yost,  Zhi-Qiang You,  A. Zech,  
 Igor Ying Zhang,  Xing Zhang,  Yan Zhao,  Ying Zhu,  B. R. Brooks,  
 G. K. L. Chan,  C. J. Cramer,  M. S. Gordon,  W. J. Hehre,  A. Klamt,  
 M. W. Schmidt,  C. D. Sherrill,  D. G. Truhlar,  A. Aspuru-Guzik,  R. Baer,  
 A. T. Bell,  N. A. Besley,  Jeng-Da Chai,  A. E. DePrince, III,  
 R. A. DiStasio Jr.,  A. Dreuw,  B. D. Dunietz,  T. R. Furlani,  
 Chao-Ping Hsu,  Yousung Jung,  Jing Kong,  D. S. Lambrecht,  WanZhen Liang,  
 C. Ochsenfeld,  V. A. Rassolov,  L. V. Slipchenko,  J. E. Subotnik,  
 T. Van Voorhis,  J. M. Herbert,  A. I. Krylov,  P. M. W. Gill,  M. Head-Gordon

 Contributors to earlier versions of Q-Chem not listed above: 
 R. D. Adamson,  B. Austin,  J. Baker,  G. J. O. Beran,  K. Brandhorst,  
 S. T. Brown,  E. F. C. Byrd,  A. K. Chakraborty,  C.-L. Cheng,  
 Siu Hung Chien,  D. M. Chipman,  D. L. Crittenden,  H. Dachsel,  
 R. J. Doerksen,  A. D. Dutoi,  L. Fusti-Molnar,  W. A. Goddard III,  
 A. Golubeva-Zadorozhnaya,  S. R. Gwaltney,  G. Hawkins,  A. Heyden,  
 S. Hirata,  G. Kedziora,  F. J. Keil,  C. Kelley,  Jihan Kim,  R. A. King,  
 R. Z. Khaliullin,  P. P. Korambath,  W. Kurlancheek,  A. M. Lee,  M. S. Lee,  
 S. V. Levchenko,  Ching Yeh Lin,  D. Liotard,  R. C. Lochan,  I. Lotan,  
 P. E. Maslen,  N. Nair,  D. P. O'Neill,  D. Neuhauser,  E. Neuscamman,  
 C. M. Oana,  R. Olson,  B. Peters,  R. Peverati,  P. A. Pieniazek,  
 Y. M. Rhee,  J. Ritchie,  M. A. Rohrdanz,  E. Rosta,  N. J. Russ,  
 H. F. Schaefer III,  N. E. Schultz,  N. Shenvi,  A. C. Simmonett,  A. Sodt,  
 D. Stuck,  K. S. Thanthiriwatte,  V. Vanovschi,  Tao Wang,  A. Warshel,  
 C. F. Williams,  Q. Wu,  X. Xu,  W. Zhang

 Please cite Q-Chem as follows:
 Y. Shao et al., Mol. Phys. 113, 184-215 (2015)
 DOI: 10.1080/00268976.2014.952696

 Q-Chem 5.1.1 for Intel X86 EM64T Linux

 Parts of Q-Chem use Armadillo 8.300.2 (Tropical Shenanigans).
 http://arma.sourceforge.net/

 Q-Chem begins on Sat Oct  3 14:24:27 2020  

Host: n0092.mhg0
0

     Scratch files written to /local/scratch/users/yhljason/CH3-_PTPSS-D3_aug-cc-pcVQZ.inp20201003135020//
The previous job contains 0 fragments, simply inherited here
Input Ideriv = 0
Curr. Ideriv = -1
Max.  Ideriv = 0
Analytic post-HF gradients are not available with non-HF exchange
Input Ideriv = 0
Curr. Ideriv = 0
Max.  Ideriv = 0

Checking the input file for inconsistencies... 	...done.

--------------------------------------------------------------
User input:
--------------------------------------------------------------
$molecule
read
$end

$rem

jobtype sp
method PTPSS-D3
xc_grid 000099000590
basis aug-cc-pcVQZ
max_scf_cycles 200
thresh 14
scf_convergence 8
mem_total 128000
cc_memory 96000
cc_backend xm
mem_static 1500
symmetry false
sym_ignore true
scf_guess read
unrestricted false
scf_algorithm gdm
n_frozen_core 0
$end

$multipole_field
ZZ -0.0001
$end

--------------------------------------------------------------
 Adding empirical dispersion correction 
 ----------------------------------------------------------------
 Doing -D3(0) with
 s6  =   0.75000
 s8  =   0.87900
 rs6 =   1.54100
 rs8 =   1.00000
 -D3 energy without 3body term =     -0.0000420200 hartrees
 ----------------------------------------------------------------
             Standard Nuclear Orientation (Angstroms)
    I     Atom           X                Y                Z
 ----------------------------------------------------------------
    1      C       0.0000000000     0.0000002206     0.0716704292
    2      H       0.0000000000     1.0378118041    -0.2899567231
    3      H       0.8987709644    -0.5189060123    -0.2899568531
    4      H      -0.8987709644    -0.5189060124    -0.2899568531
 ----------------------------------------------------------------
 Nuclear Repulsion Energy =     9.5501745798 hartrees
 There are        5 alpha and        5 beta electrons
 Requested basis set is aug-cc-pCVQZ
 There are 71 shells and 247 basis functions

 Total QAlloc Memory Limit 128000 MB
 Mega-Array Size      1467 MB
 MEM_STATIC part      1500 MB

                       Distance Matrix (Angstroms)
             C (  1)   H (  2)   H (  3)
   H (  2)  1.099012
   H (  3)  1.099012  1.797543
   H (  4)  1.099012  1.797543  1.797542
 
 Applying Cartesian multipole field
    Component          Value
    ---------          -----
     (0,0,2)       -1.00000E-04
 Nucleus-field energy     =    -0.0001010771 hartrees
 A cutoff of  1.0D-14 yielded   2556 shell pairs
 There are     31120 function pairs (     47305 Cartesian)
 
 -------------------------------------------------------
 OpenMP Integral Computing Module                       
 Release: version 1.0, May 2013, Q-Chem Inc. Pittsburgh 
 -------------------------------------------------------
 Integral Job Info:
 Integral job number is                      11
 Integral operator is                         1
 short-range coefficients                     0
 long-range coefficients              100000000
 Omega coefficients                           0
 if combine SR and LR in K                    0
 Integral screening is                        0
 Integral computing path is                   2
 max size of driver memory is           3200000
 size of driver memory is               1704330
 size of scratch memory is             18511652
 max col of scratch BK array              50625
 max len of scratch array in speh3         2114
 max len of scratch index in speh4           50
 max int batch size is                      520
 min int batch size is                       52
 fixed nKL is                                52
 max L of basis functions is                  4
 order of int derivative is                   0
 number of shells is                         71
 number of basis is                         304
 number of cartesian basis is               304
 number of contracted shell pairs          2556
 number of primitive shell pairs           4521
 maxK2 (contraction) of shell pair           81
 max number of K2 of shell pair               1
 max number of CS2 of shell pair            364
 max number of PS2 of shell pair            369
 mem total for path MDJ                  671149
 -------------------------------------------------------
 Smallest overlap matrix eigenvalue = 2.97E-05
 Guess MOs from SCF MO coefficient file

 -----------------------------------------------------------------------
  General SCF calculation program by
  Eric Jon Sundstrom, Paul Horn, Yuezhi Mao, Dmitri Zuev, Alec White,
  David Stuck, Shaama M.S., Shane Yost, Joonho Lee, David Small,
  Daniel Levine, Susi Lehtola, Hugh Burton, Evgeny Epifanovsky
 -----------------------------------------------------------------------
 Exchange:     0.5000 Hartree-Fock + 0.5000 PTPSS-D3
 Correlation:  0.6250 PTPSS-D3
 Using Euler-Maclaurin-Lebedev (99,590) quadrature formula
 Dispersion:   Grimme D3
 using 8 threads for integral computing
 -------------------------------------------------------
 OpenMP Integral computing Module                
 Release: version 2.0, May 2017, Q-Chem Inc. Pleasanton 
 -------------------------------------------------------
 -------------------------------------------------------
 OpenMP BLAS3 based DFT computing Module                
 Release: version 1.0, May 2013, Q-Chem Inc. Pittsburgh 
 -------------------------------------------------------
 A restricted SCF calculation will be
 performed using GDM
 SCF converges when RMS gradient is below 1.0e-08
 ---------------------------------------
  Cycle       Energy        RMS Gradient
 ---------------------------------------
    1     -39.7349054552      6.08e-03   Normal BFGS step
    2     -39.7349415718      1.65e-03   Normal BFGS step
    3     -39.7349540605      7.47e-04   Normal BFGS step
    4     -39.7349563193      8.28e-05   Normal BFGS step
    5     -39.7349563564      3.82e-05   Normal BFGS step
    6     -39.7349563631      1.64e-05   Normal BFGS step
    7     -39.7349563639      6.68e-06   Normal BFGS step
    8     -39.7349563640      1.29e-06   Normal BFGS step
    9     -39.7349563641      2.13e-07   Normal BFGS step
   10     -39.7349563641      3.86e-08   Normal BFGS step
   11     -39.7349563641      1.28e-08   Normal BFGS step
   12     -39.7349563641      2.45e-09  Convergence criterion met
 ---------------------------------------
 SCF time:   CPU 1420.89s  wall 178.00s 
 SCF   energy in the final basis set =      -39.7349563641
 Total energy in the final basis set =      -39.7349563641
 
 Components of the MP2 correlation energy:
        aaaa  correlation energy =         0.0000000000 au
        abab  correlation energy =        -0.1014733662 au
        bbbb  correlation energy =         0.0000000000 au
        non-Brillouin singles    =        -0.0000000000 au

 Total  MP2   correlation energy =                    -0.10147337 au
        MP2         total energy =                   -39.83642973 au
 
 --------------------------------------------------------------
 
                    Orbital Energies (a.u.)
 --------------------------------------------------------------
 
 Alpha MOs
 -- Occupied --
-10.309  -0.489  -0.186  -0.186   0.029
 -- Virtual --
  0.132   0.141   0.141   0.201   0.225   0.225   0.247   0.310
  0.310   0.349   0.350   0.350   0.398   0.407   0.407   0.409
  0.418   0.425   0.425   0.455   0.455   0.468   0.524   0.524
  0.653   0.679   0.679   0.711   0.728   0.728   0.815   0.825
  0.844   0.844   0.868   0.872   0.872   0.889   0.901   0.901
  0.946   0.946   0.951   0.964   0.964   0.975   1.058   1.059
  1.059   1.142   1.142   1.220   1.220   1.238   1.277   1.287
  1.333   1.333   1.503   1.524   1.569   1.569   1.619   1.619
  1.653   1.742   1.742   1.873   1.873   1.877   1.878   1.931
  1.931   1.946   1.989   1.989   2.039   2.044   2.044   2.126
  2.129   2.129   2.178   2.190   2.190   2.193   2.193   2.210
  2.271   2.294   2.294   2.424   2.490   2.490   2.498   2.578
  2.601   2.601   2.714   2.755   2.755   2.822   2.822   2.845
  2.862   2.883   2.883   2.904   2.954   2.954   3.144   3.144
  3.182   3.265   3.265   3.508   3.508   3.508   3.640   3.699
  3.872   3.872   3.926   3.926   3.926   4.019   4.097   4.148
  4.148   4.211   4.211   4.318   4.318   4.381   4.381   4.586
  4.730   4.762   4.762   5.015   5.744   6.002   6.002   6.145
  6.145   6.311   6.311   6.314   6.324   6.516   6.516   6.516
  6.744   6.814   6.814   6.859   6.902   6.956   6.956   6.999
  6.999   7.106   7.106   7.152   7.233   7.313   7.313   7.460
  7.708   7.754   7.754   7.895   7.895   7.954   8.194   8.194
  8.323   8.363   8.363   8.556   8.625   8.625   8.702   8.702
  8.986   9.042   9.209   9.209   9.276   9.347   9.347   9.401
  9.401   9.409   9.642   9.652   9.652  10.010  10.131  10.131
 10.211  10.309  10.309  10.631  10.673  10.673  10.821  10.821
 11.377  11.471  12.824  12.824  14.183  19.821  21.079  21.079
 26.990  26.990  27.278  27.901  27.901  37.684  66.867  67.814
 67.814  98.532  98.553  98.553  98.571  98.571  98.577  98.612
115.109 115.109 115.236 115.566 115.566 123.383 224.973 225.753
225.753 509.773
 --------------------------------------------------------------
 
          Ground-State Mulliken Net Atomic Charges

     Atom                 Charge (a.u.)
  ----------------------------------------
      1 C                    -1.736427
      2 H                     0.245477
      3 H                     0.245475
      4 H                     0.245475
  ----------------------------------------
  Sum of atomic charges =    -1.000000

 -----------------------------------------------------------------
                    Cartesian Multipole Moments
 -----------------------------------------------------------------
    Charge (ESU x 10^10)
                -4.8032
    Dipole Moment (Debye)
         X       0.0000      Y      -0.0000      Z      -1.4586
       Tot       1.4586
    Quadrupole Moments (Debye-Ang)
        XX     -13.2288     XY       0.0000     YY     -13.2287
        XZ      -0.0000     YZ      -0.0000     ZZ     -20.9291
    Octopole Moments (Debye-Ang^2)
       XXX       0.0000    XXY      -0.0745    XYY       0.0000
       YYY       0.0745    XXZ      -1.0143    XYZ       0.0000
       YYZ      -1.0143    XZZ       0.0000    YZZ      -0.0000
       ZZZ      -3.6880
    Hexadecapole Moments (Debye-Ang^3)
      XXXX     -38.7471   XXXY      -0.0000   XXYY     -12.9157
      XYYY      -0.0000   YYYY     -38.7471   XXXZ      -0.0000
      XXYZ       0.0002   XYYZ      -0.0000   YYYZ      -0.0002
      XXZZ     -22.9542   XYZZ      -0.0000   YYZZ     -22.9542
      XZZZ      -0.0000   YZZZ      -0.0000   ZZZZ     -97.9474
 -----------------------------------------------------------------
Archival summary:
1\1\n0092.mhg0\SP\ProcedureUnspecified\BasisUnspecified\13(1-,1)\yhljason\SatOct314:29:282020SatOct314:29:282020\0\\#,ProcedureUnspecified,BasisUnspecified,\\-1,1\C\H,1,1.09901\H,1,1.09901,2,109.73\H,1,1.09901,2,109.73,3,-120.64,0\\\@

 Total job time:  300.67s(wall), 2396.60s(cpu) 
 Sat Oct  3 14:29:28 2020

        *************************************************************
        *                                                           *
        *  Thank you very much for using Q-Chem.  Have a nice day.  *
        *                                                           *
        *************************************************************


