Q-Chem Developer Version!
                  Welcome to Q-Chem
     A Quantum Leap Into The Future Of Chemistry


 Q-Chem 5.1, Q-Chem, Inc., Pleasanton, CA (2018)

 Yihan Shao,  Zhengting Gan,  E. Epifanovsky,  A. T. B. Gilbert,  M. Wormit,  
 J. Kussmann,  A. W. Lange,  A. Behn,  Jia Deng,  Xintian Feng,  D. Ghosh,  
 M. Goldey,  P. R. Horn,  L. D. Jacobson,  I. Kaliman,  T. Kus,  A. Landau,  
 Jie Liu,  E. I. Proynov,  R. M. Richard,  R. P. Steele,  E. J. Sundstrom,  
 H. L. Woodcock III,  P. M. Zimmerman,  D. Zuev,  B. Albrecht,  E. Alguire,  
 S. A. Baeppler,  D. Barton,  Z. Benda,  Y. A. Bernard,  E. J. Berquist,  
 K. B. Bravaya,  H. Burton,  D. Casanova,  Chun-Min Chang,  Yunqing Chen,  
 A. Chien,  K. D. Closser,  M. P. Coons,  S. Coriani,  S. Dasgupta,  
 A. L. Dempwolff,  M. Diedenhofen,  Hainam Do,  R. G. Edgar,  Po-Tung Fang,  
 S. Faraji,  S. Fatehi,  Qingguo Feng,  K. D. Fenk,  J. Fosso-Tande,  
 Qinghui Ge,  A. Ghysels,  G. Gidofalvi,  J. Gomes,  J. Gonthier,  A. Gunina,  
 D. Hait,  M. W. D. Hanson-Heine,  P. H. P. Harbach,  A. W. Hauser,  
 J. E. Herr,  E. G. Hohenstein,  Z. C. Holden,  Kerwin Hui,  B. C. Huynh,  
 T.-C. Jagau,  Hyunjun Ji,  B. Kaduk,  K. Khistyaev,  Jaehoon Kim,  
 P. Klunzinger,  K. Koh,  D. Kosenkov,  L. Koulias,  T. Kowalczyk,  
 C. M. Krauter,  A. Kunitsa,  Ka Un Lao,  A. Laurent,  K. V. Lawler,  
 Joonho Lee,  D. Lefrancois,  S. Lehtola,  D. S. Levine,  Yi-Pei Li,  
 You-Sheng Lin,  Fenglai Liu,  E. Livshits,  A. Luenser,  P. Manohar,  
 E. Mansoor,  S. F. Manzer,  Shan-Ping Mao,  Yuezhi Mao,  N. Mardirossian,  
 A. V. Marenich,  T. Markovich,  L. A. Martinez-Martinez,  S. A. Maurer,  
 N. J. Mayhall,  S. C. McKenzie,  J.-M. Mewes,  A. F. Morrison,  
 J. W. Mullinax,  K. Nanda,  T. S. Nguyen-Beck,  R. Olivares-Amaya,  
 J. A. Parkhill,  T. M. Perrine,  F. Plasser,  P. Pokhilko,  S. Prager,  
 A. Prociuk,  E. Ramos,  D. R. Rehn,  F. Rob,  M. Schneider,  N. Sergueev,  
 S. M. Sharada,  S. Sharma,  D. W. Small,  T. Stauch,  T. Stein,  
 Yu-Chuan Su,  A. J. W. Thom,  A. Tkatchenko,  T. Tsuchimochi,  N. M. Tubman,  
 L. Vogt,  M. L. Vidal,  O. Vydrov,  M. A. Watson,  J. Wenzel,  
 M. de Wergifosse,  T. A. Wesolowski,  A. White,  J. Witte,  A. Yamada,  
 Jun Yang,  K. Yao,  S. Yeganeh,  S. R. Yost,  Zhi-Qiang You,  A. Zech,  
 Igor Ying Zhang,  Xing Zhang,  Yan Zhao,  Ying Zhu,  B. R. Brooks,  
 G. K. L. Chan,  C. J. Cramer,  M. S. Gordon,  W. J. Hehre,  A. Klamt,  
 M. W. Schmidt,  C. D. Sherrill,  D. G. Truhlar,  A. Aspuru-Guzik,  R. Baer,  
 A. T. Bell,  N. A. Besley,  Jeng-Da Chai,  A. E. DePrince, III,  
 R. A. DiStasio Jr.,  A. Dreuw,  B. D. Dunietz,  T. R. Furlani,  
 Chao-Ping Hsu,  Yousung Jung,  Jing Kong,  D. S. Lambrecht,  WanZhen Liang,  
 C. Ochsenfeld,  V. A. Rassolov,  L. V. Slipchenko,  J. E. Subotnik,  
 T. Van Voorhis,  J. M. Herbert,  A. I. Krylov,  P. M. W. Gill,  M. Head-Gordon

 Contributors to earlier versions of Q-Chem not listed above: 
 R. D. Adamson,  B. Austin,  J. Baker,  G. J. O. Beran,  K. Brandhorst,  
 S. T. Brown,  E. F. C. Byrd,  A. K. Chakraborty,  C.-L. Cheng,  
 Siu Hung Chien,  D. M. Chipman,  D. L. Crittenden,  H. Dachsel,  
 R. J. Doerksen,  A. D. Dutoi,  L. Fusti-Molnar,  W. A. Goddard III,  
 A. Golubeva-Zadorozhnaya,  S. R. Gwaltney,  G. Hawkins,  A. Heyden,  
 S. Hirata,  G. Kedziora,  F. J. Keil,  C. Kelley,  Jihan Kim,  R. A. King,  
 R. Z. Khaliullin,  P. P. Korambath,  W. Kurlancheek,  A. M. Lee,  M. S. Lee,  
 S. V. Levchenko,  Ching Yeh Lin,  D. Liotard,  R. C. Lochan,  I. Lotan,  
 P. E. Maslen,  N. Nair,  D. P. O'Neill,  D. Neuhauser,  E. Neuscamman,  
 C. M. Oana,  R. Olson,  B. Peters,  R. Peverati,  P. A. Pieniazek,  
 Y. M. Rhee,  J. Ritchie,  M. A. Rohrdanz,  E. Rosta,  N. J. Russ,  
 H. F. Schaefer III,  N. E. Schultz,  N. Shenvi,  A. C. Simmonett,  A. Sodt,  
 D. Stuck,  K. S. Thanthiriwatte,  V. Vanovschi,  Tao Wang,  A. Warshel,  
 C. F. Williams,  Q. Wu,  X. Xu,  W. Zhang

 Please cite Q-Chem as follows:
 Y. Shao et al., Mol. Phys. 113, 184-215 (2015)
 DOI: 10.1080/00268976.2014.952696

 Q-Chem 5.1.1 for Intel X86 EM64T Linux

 Parts of Q-Chem use Armadillo 8.300.2 (Tropical Shenanigans).
 http://arma.sourceforge.net/

 Q-Chem begins on Sat Oct  3 13:50:26 2020  

Host: n0093.mhg0
0

     Scratch files written to /local/scratch/users/yhljason/CH3_PTPSS-D3_aug-cc-pcVTZ.inp20201003135024//
Input Ideriv = 0
Curr. Ideriv = -1
Max.  Ideriv = 0
Input Ideriv = 1
Curr. Ideriv = 0
Max.  Ideriv = 0

Checking the input file for inconsistencies... 	...done.

--------------------------------------------------------------
User input:
--------------------------------------------------------------
$molecule
0 2
C1 0.0000   0.0000   0.0000
H2 1.0790   0.0000   0.0000
H3 -0.5395  -0.9344  0.0000
H4 -0.5395  0.9344   0.0000
$end

$rem
jobtype sp
method PTPSS-D3
xc_grid 000099000590
basis aug-cc-pcVTZ
max_scf_cycles 200
thresh 14
scf_convergence 8
scf_algorithm gdm
symmetry false
sym_ignore true
unrestricted false
gen_scfman true
internal_stability_iter 15
internal_stability_davidson_iter 200
mem_total 128000
cc_memory 96000
cc_backend xm
mem_static 1500
n_frozen_core 0
$end



--------------------------------------------------------------
 Adding empirical dispersion correction 
 ----------------------------------------------------------------
 Doing -D3(0) with
 s6  =   0.75000
 s8  =   0.87900
 rs6 =   1.54100
 rs8 =   1.00000
 -D3 energy without 3body term =     -0.0000566896 hartrees
 ----------------------------------------------------------------
             Standard Nuclear Orientation (Angstroms)
    I     Atom           X                Y                Z
 ----------------------------------------------------------------
    1      C       0.0000000000     0.0000000000     0.0000000000
    2      H       1.0790000000     0.0000000000     0.0000000000
    3      H      -0.5395000000    -0.9344000000     0.0000000000
    4      H      -0.5395000000     0.9344000000     0.0000000000
 ----------------------------------------------------------------
 Nuclear Repulsion Energy =     9.6774066879 hartrees
 There are        5 alpha and        4 beta electrons
 Requested basis set is aug-cc-pCVTZ
 There are 46 shells and 128 basis functions

 Total QAlloc Memory Limit 128000 MB
 Mega-Array Size      1467 MB
 MEM_STATIC part      1500 MB

                       Distance Matrix (Angstroms)
             C (  1)   H (  2)   H (  3)
   H (  2)  1.079000
   H (  3)  1.078964  1.868862
   H (  4)  1.078964  1.868862  1.868800
 
 A cutoff of  1.0D-14 yielded   1081 shell pairs
 There are      8443 function pairs (     10725 Cartesian)
 
 -------------------------------------------------------
 OpenMP Integral Computing Module                       
 Release: version 1.0, May 2013, Q-Chem Inc. Pittsburgh 
 -------------------------------------------------------
 Integral Job Info:
 Integral job number is                      11
 Integral operator is                         1
 short-range coefficients                     0
 long-range coefficients              100000000
 Omega coefficients                           0
 if combine SR and LR in K                    0
 Integral screening is                        0
 Integral computing path is                   2
 max size of driver memory is            800000
 size of driver memory is                776718
 size of scratch memory is              6691272
 max col of scratch BK array              10000
 max len of scratch array in speh3          662
 max len of scratch index in speh4           32
 max int batch size is                      520
 min int batch size is                       52
 fixed nKL is                                52
 max L of basis functions is                  3
 order of int derivative is                   0
 number of shells is                         46
 number of basis is                         144
 number of cartesian basis is               144
 number of contracted shell pairs          1081
 number of primitive shell pairs           2360
 maxK2 (contraction) of shell pair           64
 max number of K2 of shell pair               1
 max number of CS2 of shell pair            196
 max number of PS2 of shell pair            248
 mem total for path MDJ                  541562
 -------------------------------------------------------
 Smallest overlap matrix eigenvalue = 1.00E-04

 Scale SEOQF with 1.000000e-01/1.000000e-01/1.000000e-01

 Standard Electronic Orientation quadrupole field applied
 Nucleus-field energy     =     0.0000000002 hartrees
 Guess from superposition of atomic densities
 Warning:  Energy on first SCF cycle will be non-variational
 SAD guess density has 9.000000 electrons

 -----------------------------------------------------------------------
  General SCF calculation program by
  Eric Jon Sundstrom, Paul Horn, Yuezhi Mao, Dmitri Zuev, Alec White,
  David Stuck, Shaama M.S., Shane Yost, Joonho Lee, David Small,
  Daniel Levine, Susi Lehtola, Hugh Burton, Evgeny Epifanovsky
 -----------------------------------------------------------------------
 Exchange:     0.5000 Hartree-Fock + 0.5000 PTPSS-D3
 Correlation:  0.6250 PTPSS-D3
 Using Euler-Maclaurin-Lebedev (99,590) quadrature formula
 Dispersion:   Grimme D3
Running Object-Oriented ROKS (ROHF)
ROHF occupied orbitals are orthonormal
ROHF occupied orbitals are orthogonal to virtual orbitals
ROHF virtual orbitals are orthonormal
We will preform up to 15 macro iterations over saddle points until a stable solution is found
Energy prior to optimization (guess energy) = -39.542558080850
Begin Timing: Total SCF Calculation
Begin Timing: SCF Single Stationary Point Calculation
begin iterations for algorithm: GDM          
the SCF tolerance is set to 1.00e-08
    1     -39.5425580808      2.28e-01     00000  Descent step
    2     -39.7073571738      8.49e-02     00000  Normal BFGS step
    3     -39.7512849387      1.00e-02     00000  Normal BFGS step
    4     -39.7522298328      7.04e-03     00000  Normal BFGS step
    5     -39.7523238652      1.42e-03     00000  Normal BFGS step
    6     -39.7523283924      1.51e-04     00000  Normal BFGS step
    7     -39.7523284714      1.44e-05     00000  Normal BFGS step
    8     -39.7523284722      1.11e-06     00000  Normal BFGS step
    9     -39.7523284722      1.40e-07     00000  Normal BFGS step
   10     -39.7523284722      2.51e-08     00000  Normal BFGS step
   11     -39.7523284722      7.46e-09     00000 Convergence criterion met
The disked orbital energies are calculated using alpha and beta Focks
Timing for Single Stationary Point: 40.00s (wall), 322.05s (cpu)
Begin Timing: Stability
===================================================
Beginning Test for Internal Stability
===================================================
generating davidson guess vectors based on koopmans-like excitations
    1      2.01e-01     00000 Davidson Iteration
    2      1.06e-01     00000 Davidson Iteration
    3      1.03e-01     00000 Davidson Iteration
    4      3.82e-02     00000 Davidson Iteration
    5      2.09e-02     00000 Davidson Iteration
    6      6.23e-03     00000 Davidson Iteration
    7      1.52e-03     00000 Davidson Iteration
    8      2.16e-04     00000 Davidson Iteration
    9      4.39e-05     00000 Davidson Iteration
   10      2.18e-03     00000 Davidson Iteration
   11      2.88e-04     00000 Davidson Iteration
   12      3.74e-05     00000 Davidson Converged
converged_eigenvalues
   0.4932
   0.4201
   0.4932
Threshold for negative eigenvalues: -1.0e-05
solution was a local minimum (stable)
===================================================
End Test for Internal Stability
===================================================
Our SCF solution is stable!
The disked orbital energies are calculated using alpha and beta Focks
Timing for Total SCF: 137.00s (wall), 1089.25s (cpu)
 Total energy in the final basis set =      -39.7523284722
<S^2> =          0.750000000
    ==================================================
              The end of Object-Oriented SCFman       
    ==================================================
 
 Components of the MP2 correlation energy:
        aaaa  correlation energy =         0.0000000000 au
        abab  correlation energy =        -0.0765274274 au
        bbbb  correlation energy =         0.0000000000 au
        non-Brillouin singles    =        -0.0020178209 au

 Total  MP2   correlation energy =                    -0.07854525 au
        MP2         total energy =                   -39.83087372 au
 
 --------------------------------------------------------------
 
                    Orbital Energies (a.u.)
 --------------------------------------------------------------
 
 Alpha MOs
 -- Occupied --
-10.604  -0.791  -0.487  -0.487  -0.292
 -- Virtual --
  0.015   0.038   0.038   0.073   0.111   0.111   0.113   0.174
  0.174   0.187   0.224   0.224   0.299   0.299   0.293   0.311
  0.328   0.346   0.362   0.362   0.379   0.379   0.397   0.397
  0.551   0.542   0.663   0.663   0.744   0.744   0.758   0.758
  0.781   0.819   0.870   0.912   0.917   0.917   0.930   0.930
  0.987   0.998   0.998   1.012   1.064   1.064   1.063   1.063
  1.220   1.338   1.338   1.470   1.496   1.496   1.503   1.496
  1.548   1.548   1.614   1.798   1.798   1.888   1.957   1.951
  1.951   2.061   2.062   2.676   2.774   2.774   2.913   3.031
  3.031   3.326   3.326   3.338   3.428   3.428   3.477   3.477
  3.481   3.521   3.696   3.741   3.741   3.753   4.046   4.046
  4.181   4.201   4.201   4.426   4.451   4.619   4.619   4.640
  4.640   4.839   4.854   5.083   5.083   5.170   5.170   5.236
  5.236   5.922   6.204   6.205   6.487   6.567  15.283  16.274
 16.274  17.224  40.985  40.985  41.207  41.233  41.233  80.497
 81.211  81.211  86.663
 
 Beta MOs
 -- Occupied --
-10.588  -0.735  -0.472  -0.472
 -- Virtual --
  0.018   0.019   0.040   0.040   0.089   0.114   0.114   0.119
  0.177   0.177   0.207   0.236   0.236   0.302   0.302   0.309
  0.312   0.339   0.356   0.371   0.371   0.384   0.384   0.402
  0.402   0.579   0.593   0.670   0.670   0.752   0.752   0.776
  0.776   0.783   0.835   0.882   0.923   0.926   0.926   0.939
  0.939   0.995   0.999   0.999   1.015   1.069   1.069   1.084
  1.084   1.234   1.348   1.348   1.473   1.505   1.505   1.505
  1.530   1.558   1.558   1.656   1.806   1.806   1.909   1.960
  1.965   1.965   2.065   2.065   2.730   2.797   2.797   2.931
  3.082   3.082   3.352   3.352   3.385   3.459   3.459   3.496
  3.496   3.506   3.551   3.728   3.754   3.754   3.756   4.060
  4.060   4.189   4.216   4.216   4.455   4.459   4.622   4.622
  4.656   4.656   4.838   4.882   5.095   5.095   5.208   5.208
  5.257   5.257   5.950   6.236   6.236   6.514   6.618  15.331
 16.290  16.290  17.247  40.997  40.997  41.223  41.232  41.232
 80.501  81.209  81.209  86.667
 --------------------------------------------------------------
 
          Ground-State Mulliken Net Atomic Charges

     Atom                 Charge (a.u.)
  ----------------------------------------
      1 C                    -1.341537
      2 H                     0.447177
      3 H                     0.447180
      4 H                     0.447180
  ----------------------------------------
  Sum of atomic charges =    -0.000000

 -----------------------------------------------------------------
                    Cartesian Multipole Moments
 -----------------------------------------------------------------
    Charge (ESU x 10^10)
                -0.0000
    Dipole Moment (Debye)
         X      -0.0000      Y       0.0000      Z       0.0000
       Tot       0.0000
    Quadrupole Moments (Debye-Ang)
        XX      -7.2137     XY       0.0000     YY      -7.2139
        XZ       0.0000     YZ      -0.0000     ZZ      -9.1044
    Octopole Moments (Debye-Ang^2)
       XXX       0.9101    XXY       0.0000    XYY      -0.9102
       YYY       0.0000    XXZ       0.0000    XYZ       0.0000
       YYZ       0.0000    XZZ      -0.0000    YZZ      -0.0000
       ZZZ       0.0000
    Hexadecapole Moments (Debye-Ang^3)
      XXXX     -14.8582   XXXY      -0.0000   XXYY      -4.9527
      XYYY      -0.0000   YYYY     -14.8579   XXXZ       0.0000
      XXYZ       0.0000   XYYZ      -0.0000   YYYZ       0.0000
      XXZZ      -4.8685   XYZZ       0.0000   YYZZ      -4.8684
      XZZZ       0.0000   YZZZ      -0.0000   ZZZZ     -11.8492
 -----------------------------------------------------------------
Archival summary:
1\1\n0093.mhg0\SP\ROProcedureUnspecified\BasisUnspecified\13(2)\yhljason\SatOct313:53:022020SatOct313:53:022020\0\\#,ROProcedureUnspecified,BasisUnspecified,\\0,2\C\H,1,1.07896\H,1,1.07896,2,119.998\H,1,1.079,2,120.001,3,-180,0\\\@

 Total job time:  155.69s(wall), 1235.61s(cpu) 
 Sat Oct  3 13:53:02 2020

        *************************************************************
        *                                                           *
        *  Thank you very much for using Q-Chem.  Have a nice day.  *
        *                                                           *
        *************************************************************


 
User input: 2 of 83 of 8 
 
Q-Chem Developer Version!
                  Welcome to Q-Chem
     A Quantum Leap Into The Future Of Chemistry


 Q-Chem 5.1, Q-Chem, Inc., Pleasanton, CA (2018)

 Yihan Shao,  Zhengting Gan,  E. Epifanovsky,  A. T. B. Gilbert,  M. Wormit,  
 J. Kussmann,  A. W. Lange,  A. Behn,  Jia Deng,  Xintian Feng,  D. Ghosh,  
 M. Goldey,  P. R. Horn,  L. D. Jacobson,  I. Kaliman,  T. Kus,  A. Landau,  
 Jie Liu,  E. I. Proynov,  R. M. Richard,  R. P. Steele,  E. J. Sundstrom,  
 H. L. Woodcock III,  P. M. Zimmerman,  D. Zuev,  B. Albrecht,  E. Alguire,  
 S. A. Baeppler,  D. Barton,  Z. Benda,  Y. A. Bernard,  E. J. Berquist,  
 K. B. Bravaya,  H. Burton,  D. Casanova,  Chun-Min Chang,  Yunqing Chen,  
 A. Chien,  K. D. Closser,  M. P. Coons,  S. Coriani,  S. Dasgupta,  
 A. L. Dempwolff,  M. Diedenhofen,  Hainam Do,  R. G. Edgar,  Po-Tung Fang,  
 S. Faraji,  S. Fatehi,  Qingguo Feng,  K. D. Fenk,  J. Fosso-Tande,  
 Qinghui Ge,  A. Ghysels,  G. Gidofalvi,  J. Gomes,  J. Gonthier,  A. Gunina,  
 D. Hait,  M. W. D. Hanson-Heine,  P. H. P. Harbach,  A. W. Hauser,  
 J. E. Herr,  E. G. Hohenstein,  Z. C. Holden,  Kerwin Hui,  B. C. Huynh,  
 T.-C. Jagau,  Hyunjun Ji,  B. Kaduk,  K. Khistyaev,  Jaehoon Kim,  
 P. Klunzinger,  K. Koh,  D. Kosenkov,  L. Koulias,  T. Kowalczyk,  
 C. M. Krauter,  A. Kunitsa,  Ka Un Lao,  A. Laurent,  K. V. Lawler,  
 Joonho Lee,  D. Lefrancois,  S. Lehtola,  D. S. Levine,  Yi-Pei Li,  
 You-Sheng Lin,  Fenglai Liu,  E. Livshits,  A. Luenser,  P. Manohar,  
 E. Mansoor,  S. F. Manzer,  Shan-Ping Mao,  Yuezhi Mao,  N. Mardirossian,  
 A. V. Marenich,  T. Markovich,  L. A. Martinez-Martinez,  S. A. Maurer,  
 N. J. Mayhall,  S. C. McKenzie,  J.-M. Mewes,  A. F. Morrison,  
 J. W. Mullinax,  K. Nanda,  T. S. Nguyen-Beck,  R. Olivares-Amaya,  
 J. A. Parkhill,  T. M. Perrine,  F. Plasser,  P. Pokhilko,  S. Prager,  
 A. Prociuk,  E. Ramos,  D. R. Rehn,  F. Rob,  M. Schneider,  N. Sergueev,  
 S. M. Sharada,  S. Sharma,  D. W. Small,  T. Stauch,  T. Stein,  
 Yu-Chuan Su,  A. J. W. Thom,  A. Tkatchenko,  T. Tsuchimochi,  N. M. Tubman,  
 L. Vogt,  M. L. Vidal,  O. Vydrov,  M. A. Watson,  J. Wenzel,  
 M. de Wergifosse,  T. A. Wesolowski,  A. White,  J. Witte,  A. Yamada,  
 Jun Yang,  K. Yao,  S. Yeganeh,  S. R. Yost,  Zhi-Qiang You,  A. Zech,  
 Igor Ying Zhang,  Xing Zhang,  Yan Zhao,  Ying Zhu,  B. R. Brooks,  
 G. K. L. Chan,  C. J. Cramer,  M. S. Gordon,  W. J. Hehre,  A. Klamt,  
 M. W. Schmidt,  C. D. Sherrill,  D. G. Truhlar,  A. Aspuru-Guzik,  R. Baer,  
 A. T. Bell,  N. A. Besley,  Jeng-Da Chai,  A. E. DePrince, III,  
 R. A. DiStasio Jr.,  A. Dreuw,  B. D. Dunietz,  T. R. Furlani,  
 Chao-Ping Hsu,  Yousung Jung,  Jing Kong,  D. S. Lambrecht,  WanZhen Liang,  
 C. Ochsenfeld,  V. A. Rassolov,  L. V. Slipchenko,  J. E. Subotnik,  
 T. Van Voorhis,  J. M. Herbert,  A. I. Krylov,  P. M. W. Gill,  M. Head-Gordon

 Contributors to earlier versions of Q-Chem not listed above: 
 R. D. Adamson,  B. Austin,  J. Baker,  G. J. O. Beran,  K. Brandhorst,  
 S. T. Brown,  E. F. C. Byrd,  A. K. Chakraborty,  C.-L. Cheng,  
 Siu Hung Chien,  D. M. Chipman,  D. L. Crittenden,  H. Dachsel,  
 R. J. Doerksen,  A. D. Dutoi,  L. Fusti-Molnar,  W. A. Goddard III,  
 A. Golubeva-Zadorozhnaya,  S. R. Gwaltney,  G. Hawkins,  A. Heyden,  
 S. Hirata,  G. Kedziora,  F. J. Keil,  C. Kelley,  Jihan Kim,  R. A. King,  
 R. Z. Khaliullin,  P. P. Korambath,  W. Kurlancheek,  A. M. Lee,  M. S. Lee,  
 S. V. Levchenko,  Ching Yeh Lin,  D. Liotard,  R. C. Lochan,  I. Lotan,  
 P. E. Maslen,  N. Nair,  D. P. O'Neill,  D. Neuhauser,  E. Neuscamman,  
 C. M. Oana,  R. Olson,  B. Peters,  R. Peverati,  P. A. Pieniazek,  
 Y. M. Rhee,  J. Ritchie,  M. A. Rohrdanz,  E. Rosta,  N. J. Russ,  
 H. F. Schaefer III,  N. E. Schultz,  N. Shenvi,  A. C. Simmonett,  A. Sodt,  
 D. Stuck,  K. S. Thanthiriwatte,  V. Vanovschi,  Tao Wang,  A. Warshel,  
 C. F. Williams,  Q. Wu,  X. Xu,  W. Zhang

 Please cite Q-Chem as follows:
 Y. Shao et al., Mol. Phys. 113, 184-215 (2015)
 DOI: 10.1080/00268976.2014.952696

 Q-Chem 5.1.1 for Intel X86 EM64T Linux

 Parts of Q-Chem use Armadillo 8.300.2 (Tropical Shenanigans).
 http://arma.sourceforge.net/

 Q-Chem begins on Sat Oct  3 13:53:04 2020  

Host: n0093.mhg0
0

     Scratch files written to /local/scratch/users/yhljason/CH3_PTPSS-D3_aug-cc-pcVTZ.inp20201003135024//
The previous job contains 0 fragments, simply inherited here
Input Ideriv = 0
Curr. Ideriv = -1
Max.  Ideriv = 0
Input Ideriv = 1
Curr. Ideriv = 0
Max.  Ideriv = 0

Checking the input file for inconsistencies... 	...done.

--------------------------------------------------------------
User input:
--------------------------------------------------------------
$molecule
read
$end

$rem

jobtype sp
method PTPSS-D3
xc_grid 000099000590
basis aug-cc-pcVTZ
max_scf_cycles 200
thresh 14
scf_convergence 8
mem_total 128000
cc_memory 96000
cc_backend xm
mem_static 1500
symmetry false
sym_ignore true
scf_guess read
unrestricted false
scf_algorithm gdm
n_frozen_core 0
$end

$multipole_field
XX 0.0001
$end


--------------------------------------------------------------
 Adding empirical dispersion correction 
 ----------------------------------------------------------------
 Doing -D3(0) with
 s6  =   0.75000
 s8  =   0.87900
 rs6 =   1.54100
 rs8 =   1.00000
 -D3 energy without 3body term =     -0.0000566896 hartrees
 ----------------------------------------------------------------
             Standard Nuclear Orientation (Angstroms)
    I     Atom           X                Y                Z
 ----------------------------------------------------------------
    1      C       0.0000000000     0.0000000000     0.0000000000
    2      H       1.0790000000     0.0000000000     0.0000000000
    3      H      -0.5395000000    -0.9344000000     0.0000000000
    4      H      -0.5395000000     0.9344000000     0.0000000000
 ----------------------------------------------------------------
 Nuclear Repulsion Energy =     9.6774066879 hartrees
 There are        5 alpha and        4 beta electrons
 Requested basis set is aug-cc-pCVTZ
 There are 46 shells and 128 basis functions

 Total QAlloc Memory Limit 128000 MB
 Mega-Array Size      1467 MB
 MEM_STATIC part      1500 MB

                       Distance Matrix (Angstroms)
             C (  1)   H (  2)   H (  3)
   H (  2)  1.079000
   H (  3)  1.078964  1.868862
   H (  4)  1.078964  1.868862  1.868800
 
 Applying Cartesian multipole field
    Component          Value
    ---------          -----
     (2,0,0)        1.00000E-04
 Nucleus-field energy     =     0.0006236370 hartrees
 A cutoff of  1.0D-14 yielded   1081 shell pairs
 There are      8443 function pairs (     10725 Cartesian)
 
 -------------------------------------------------------
 OpenMP Integral Computing Module                       
 Release: version 1.0, May 2013, Q-Chem Inc. Pittsburgh 
 -------------------------------------------------------
 Integral Job Info:
 Integral job number is                      11
 Integral operator is                         1
 short-range coefficients                     0
 long-range coefficients              100000000
 Omega coefficients                           0
 if combine SR and LR in K                    0
 Integral screening is                        0
 Integral computing path is                   2
 max size of driver memory is            800000
 size of driver memory is                776718
 size of scratch memory is              6691272
 max col of scratch BK array              10000
 max len of scratch array in speh3          662
 max len of scratch index in speh4           32
 max int batch size is                      520
 min int batch size is                       52
 fixed nKL is                                52
 max L of basis functions is                  3
 order of int derivative is                   0
 number of shells is                         46
 number of basis is                         144
 number of cartesian basis is               144
 number of contracted shell pairs          1081
 number of primitive shell pairs           2360
 maxK2 (contraction) of shell pair           64
 max number of K2 of shell pair               1
 max number of CS2 of shell pair            196
 max number of PS2 of shell pair            248
 mem total for path MDJ                  541562
 -------------------------------------------------------
 Smallest overlap matrix eigenvalue = 1.00E-04
 Guess MOs from SCF MO coefficient file
 Reading MOs from coefficient file
 Reading MOs from coefficient file
 A restricted hybrid HF-DFT SCF calculation will be
 performed using Geometric Direct Minimization
 Exchange:     0.5000 Hartree-Fock + 0.5000 PTPSS-D3
 Correlation:  0.6250 PTPSS-D3
 Using Euler-Maclaurin-Lebedev (99,590) quadrature formula
 Dispersion:   Grimme D3
 SCF converges when RMS gradient is below 1.0E-08
Using Q-Chem read-in guess as SCF_GUESS READ specified.

 using 8 threads for integral computing
 -------------------------------------------------------
 OpenMP Integral computing Module                
 Release: version 2.0, May 2017, Q-Chem Inc. Pleasanton 
 -------------------------------------------------------
TIMEINFO->: J/JK contribution 6.40 sec.
 -------------------------------------------------------
 OpenMP BLAS3 based DFT computing Module                
 Release: version 1.0, May 2013, Q-Chem Inc. Pittsburgh 
 -------------------------------------------------------
 ---------------------------------------
  Cycle       Energy        RMS Gradient
 ---------------------------------------
    1     -39.7528647952      3.34E-04 Normal BFGS step
TIMEINFO->: J/JK contribution 6.33 sec.
    2     -39.7528651232      3.36E-04 Normal BFGS step
TIMEINFO->: J/JK contribution 6.32 sec.
    3     -39.7528652128      7.66E-05 Normal BFGS step
TIMEINFO->: J/JK contribution 6.35 sec.
    4     -39.7528652188      1.10E-05 Normal BFGS step
TIMEINFO->: J/JK contribution 6.30 sec.
    5     -39.7528652190      2.93E-06 Normal BFGS step
TIMEINFO->: J/JK contribution 6.31 sec.
    6     -39.7528652190      5.44E-07 Normal BFGS step
TIMEINFO->: J/JK contribution 6.29 sec.
    7     -39.7528652190      1.01E-07 Normal BFGS step
TIMEINFO->: J/JK contribution 6.29 sec.
    8     -39.7528652190      1.11E-08 Normal BFGS step
TIMEINFO->: J/JK contribution 6.27 sec.
   GDM::WARNING energy changes are now smaller than effective accuracy.
   GDM::        calculation will continue, but THRESH should be increased
   GDM::        or SCF_CONVERGENCE decreased.
   GDM::        effective_thresh =   5.000000000000000E-011
    9     -39.7528652190      1.53E-09 Convergence criterion met
 ---------------------------------------
 SCF time:  CPU 266.65 s  wall 33.55 s
 SCF   energy in the final basis set = -39.75286522
 Total energy in the final basis set = -39.75286522
 
 Components of the MP2 correlation energy:
        aaaa  correlation energy =         0.0000000000 au
        abab  correlation energy =        -0.0765294821 au
        bbbb  correlation energy =         0.0000000000 au
        non-Brillouin singles    =        -0.0020174842 au

 Total  MP2   correlation energy =                    -0.07854697 au
        MP2         total energy =                   -39.83141219 au
 
 --------------------------------------------------------------
 
                    Orbital Energies (a.u.)
 --------------------------------------------------------------
 
 Alpha MOs
 -- Occupied --
-10.605  -0.791  -0.488  -0.487  -0.292
 -- Virtual --
  0.012   0.034   0.037   0.072   0.108   0.109   0.110   0.172
  0.172   0.185   0.223   0.223   0.291   0.297   0.298   0.309
  0.327   0.344   0.361   0.362   0.377   0.378   0.395   0.396
  0.543   0.550   0.662   0.663   0.743   0.743   0.757   0.757
  0.781   0.819   0.870   0.911   0.916   0.917   0.929   0.929
  0.986   0.997   0.997   1.011   1.063   1.064   1.063   1.064
  1.220   1.337   1.338   1.469   1.495   1.496   1.502   1.496
  1.548   1.548   1.614   1.797   1.798   1.887   1.950   1.950
  1.957   2.061   2.061   2.676   2.773   2.773   2.913   3.031
  3.031   3.325   3.325   3.338   3.427   3.427   3.477   3.477
  3.481   3.519   3.697   3.740   3.741   3.752   4.046   4.046
  4.181   4.201   4.201   4.426   4.450   4.619   4.619   4.639
  4.639   4.839   4.855   5.083   5.083   5.170   5.170   5.236
  5.236   5.922   6.204   6.204   6.486   6.567  15.283  16.273
 16.273  17.224  40.984  40.984  41.207  41.232  41.232  80.496
 81.211  81.211  86.663
 
 Beta MOs
 -- Occupied --
-10.589  -0.735  -0.472  -0.472
 -- Virtual --
  0.018   0.017   0.036   0.038   0.088   0.111   0.112   0.117
  0.175   0.176   0.208   0.235   0.235   0.309   0.300   0.301
  0.310   0.338   0.355   0.370   0.370   0.382   0.383   0.401
  0.401   0.592   0.578   0.669   0.669   0.751   0.751   0.776
  0.776   0.782   0.834   0.882   0.922   0.925   0.926   0.938
  0.938   0.995   0.998   0.998   1.015   1.068   1.068   1.083
  1.083   1.234   1.347   1.348   1.473   1.504   1.504   1.504
  1.529   1.557   1.558   1.655   1.805   1.806   1.908   1.964
  1.965   1.960   2.065   2.065   2.730   2.797   2.797   2.931
  3.082   3.082   3.351   3.352   3.385   3.459   3.459   3.496
  3.496   3.505   3.551   3.727   3.754   3.754   3.755   4.059
  4.059   4.188   4.216   4.216   4.455   4.458   4.622   4.622
  4.656   4.656   4.837   4.882   5.094   5.094   5.208   5.208
  5.256   5.256   5.950   6.235   6.235   6.514   6.617  15.331
 16.289  16.289  17.247  40.997  40.997  41.223  41.231  41.231
 80.501  81.208  81.208  86.667
 --------------------------------------------------------------
 
          Ground-State Mulliken Net Atomic Charges

     Atom                 Charge (a.u.)
  ----------------------------------------
      1 C                    -1.341602
      2 H                     0.446807
      3 H                     0.447398
      4 H                     0.447398
  ----------------------------------------
  Sum of atomic charges =     0.000000

 -----------------------------------------------------------------
                    Cartesian Multipole Moments
 -----------------------------------------------------------------
    Charge (ESU x 10^10)
                 0.0000
    Dipole Moment (Debye)
         X      -0.0014      Y       0.0000      Z       0.0000
       Tot       0.0014
    Quadrupole Moments (Debye-Ang)
        XX      -7.2251     XY      -0.0000     YY      -7.2143
        XZ       0.0000     YZ      -0.0000     ZZ      -9.1059
    Octopole Moments (Debye-Ang^2)
       XXX       0.9018    XXY       0.0000    XYY      -0.9096
       YYY       0.0000    XXZ       0.0000    XYZ      -0.0000
       YYZ       0.0000    XZZ      -0.0006    YZZ       0.0000
       ZZZ       0.0000
    Hexadecapole Moments (Debye-Ang^3)
      XXXX     -14.9068   XXXY      -0.0000   XXYY      -4.9608
      XYYY      -0.0000   YYYY     -14.8600   XXXZ      -0.0000
      XXYZ       0.0000   XYYZ      -0.0000   YYYZ      -0.0000
      XXZZ      -4.8765   XYZZ       0.0000   YYZZ      -4.8701
      XZZZ       0.0000   YZZZ      -0.0000   ZZZZ     -11.8573
 -----------------------------------------------------------------
Archival summary:
1\1\n0093.mhg0\SP\ROProcedureUnspecified\BasisUnspecified\13(2)\yhljason\SatOct313:53:532020SatOct313:53:532020\0\\#,ROProcedureUnspecified,BasisUnspecified,\\0,2\C\H,1,1.07896\H,1,1.07896,2,119.998\H,1,1.079,2,120.001,3,-180,0\\\@

 Total job time:  48.61s(wall), 386.15s(cpu) 
 Sat Oct  3 13:53:53 2020

        *************************************************************
        *                                                           *
        *  Thank you very much for using Q-Chem.  Have a nice day.  *
        *                                                           *
        *************************************************************


 
User input: 4 of 8 
 
Q-Chem Developer Version!
                  Welcome to Q-Chem
     A Quantum Leap Into The Future Of Chemistry


 Q-Chem 5.1, Q-Chem, Inc., Pleasanton, CA (2018)

 Yihan Shao,  Zhengting Gan,  E. Epifanovsky,  A. T. B. Gilbert,  M. Wormit,  
 J. Kussmann,  A. W. Lange,  A. Behn,  Jia Deng,  Xintian Feng,  D. Ghosh,  
 M. Goldey,  P. R. Horn,  L. D. Jacobson,  I. Kaliman,  T. Kus,  A. Landau,  
 Jie Liu,  E. I. Proynov,  R. M. Richard,  R. P. Steele,  E. J. Sundstrom,  
 H. L. Woodcock III,  P. M. Zimmerman,  D. Zuev,  B. Albrecht,  E. Alguire,  
 S. A. Baeppler,  D. Barton,  Z. Benda,  Y. A. Bernard,  E. J. Berquist,  
 K. B. Bravaya,  H. Burton,  D. Casanova,  Chun-Min Chang,  Yunqing Chen,  
 A. Chien,  K. D. Closser,  M. P. Coons,  S. Coriani,  S. Dasgupta,  
 A. L. Dempwolff,  M. Diedenhofen,  Hainam Do,  R. G. Edgar,  Po-Tung Fang,  
 S. Faraji,  S. Fatehi,  Qingguo Feng,  K. D. Fenk,  J. Fosso-Tande,  
 Qinghui Ge,  A. Ghysels,  G. Gidofalvi,  J. Gomes,  J. Gonthier,  A. Gunina,  
 D. Hait,  M. W. D. Hanson-Heine,  P. H. P. Harbach,  A. W. Hauser,  
 J. E. Herr,  E. G. Hohenstein,  Z. C. Holden,  Kerwin Hui,  B. C. Huynh,  
 T.-C. Jagau,  Hyunjun Ji,  B. Kaduk,  K. Khistyaev,  Jaehoon Kim,  
 P. Klunzinger,  K. Koh,  D. Kosenkov,  L. Koulias,  T. Kowalczyk,  
 C. M. Krauter,  A. Kunitsa,  Ka Un Lao,  A. Laurent,  K. V. Lawler,  
 Joonho Lee,  D. Lefrancois,  S. Lehtola,  D. S. Levine,  Yi-Pei Li,  
 You-Sheng Lin,  Fenglai Liu,  E. Livshits,  A. Luenser,  P. Manohar,  
 E. Mansoor,  S. F. Manzer,  Shan-Ping Mao,  Yuezhi Mao,  N. Mardirossian,  
 A. V. Marenich,  T. Markovich,  L. A. Martinez-Martinez,  S. A. Maurer,  
 N. J. Mayhall,  S. C. McKenzie,  J.-M. Mewes,  A. F. Morrison,  
 J. W. Mullinax,  K. Nanda,  T. S. Nguyen-Beck,  R. Olivares-Amaya,  
 J. A. Parkhill,  T. M. Perrine,  F. Plasser,  P. Pokhilko,  S. Prager,  
 A. Prociuk,  E. Ramos,  D. R. Rehn,  F. Rob,  M. Schneider,  N. Sergueev,  
 S. M. Sharada,  S. Sharma,  D. W. Small,  T. Stauch,  T. Stein,  
 Yu-Chuan Su,  A. J. W. Thom,  A. Tkatchenko,  T. Tsuchimochi,  N. M. Tubman,  
 L. Vogt,  M. L. Vidal,  O. Vydrov,  M. A. Watson,  J. Wenzel,  
 M. de Wergifosse,  T. A. Wesolowski,  A. White,  J. Witte,  A. Yamada,  
 Jun Yang,  K. Yao,  S. Yeganeh,  S. R. Yost,  Zhi-Qiang You,  A. Zech,  
 Igor Ying Zhang,  Xing Zhang,  Yan Zhao,  Ying Zhu,  B. R. Brooks,  
 G. K. L. Chan,  C. J. Cramer,  M. S. Gordon,  W. J. Hehre,  A. Klamt,  
 M. W. Schmidt,  C. D. Sherrill,  D. G. Truhlar,  A. Aspuru-Guzik,  R. Baer,  
 A. T. Bell,  N. A. Besley,  Jeng-Da Chai,  A. E. DePrince, III,  
 R. A. DiStasio Jr.,  A. Dreuw,  B. D. Dunietz,  T. R. Furlani,  
 Chao-Ping Hsu,  Yousung Jung,  Jing Kong,  D. S. Lambrecht,  WanZhen Liang,  
 C. Ochsenfeld,  V. A. Rassolov,  L. V. Slipchenko,  J. E. Subotnik,  
 T. Van Voorhis,  J. M. Herbert,  A. I. Krylov,  P. M. W. Gill,  M. Head-Gordon

 Contributors to earlier versions of Q-Chem not listed above: 
 R. D. Adamson,  B. Austin,  J. Baker,  G. J. O. Beran,  K. Brandhorst,  
 S. T. Brown,  E. F. C. Byrd,  A. K. Chakraborty,  C.-L. Cheng,  
 Siu Hung Chien,  D. M. Chipman,  D. L. Crittenden,  H. Dachsel,  
 R. J. Doerksen,  A. D. Dutoi,  L. Fusti-Molnar,  W. A. Goddard III,  
 A. Golubeva-Zadorozhnaya,  S. R. Gwaltney,  G. Hawkins,  A. Heyden,  
 S. Hirata,  G. Kedziora,  F. J. Keil,  C. Kelley,  Jihan Kim,  R. A. King,  
 R. Z. Khaliullin,  P. P. Korambath,  W. Kurlancheek,  A. M. Lee,  M. S. Lee,  
 S. V. Levchenko,  Ching Yeh Lin,  D. Liotard,  R. C. Lochan,  I. Lotan,  
 P. E. Maslen,  N. Nair,  D. P. O'Neill,  D. Neuhauser,  E. Neuscamman,  
 C. M. Oana,  R. Olson,  B. Peters,  R. Peverati,  P. A. Pieniazek,  
 Y. M. Rhee,  J. Ritchie,  M. A. Rohrdanz,  E. Rosta,  N. J. Russ,  
 H. F. Schaefer III,  N. E. Schultz,  N. Shenvi,  A. C. Simmonett,  A. Sodt,  
 D. Stuck,  K. S. Thanthiriwatte,  V. Vanovschi,  Tao Wang,  A. Warshel,  
 C. F. Williams,  Q. Wu,  X. Xu,  W. Zhang

 Please cite Q-Chem as follows:
 Y. Shao et al., Mol. Phys. 113, 184-215 (2015)
 DOI: 10.1080/00268976.2014.952696

 Q-Chem 5.1.1 for Intel X86 EM64T Linux

 Parts of Q-Chem use Armadillo 8.300.2 (Tropical Shenanigans).
 http://arma.sourceforge.net/

 Q-Chem begins on Sat Oct  3 13:53:53 2020  

Host: n0093.mhg0
0

     Scratch files written to /local/scratch/users/yhljason/CH3_PTPSS-D3_aug-cc-pcVTZ.inp20201003135024//
The previous job contains 0 fragments, simply inherited here
Input Ideriv = 0
Curr. Ideriv = -1
Max.  Ideriv = 0
Input Ideriv = 1
Curr. Ideriv = 0
Max.  Ideriv = 0

Checking the input file for inconsistencies... 	...done.

--------------------------------------------------------------
User input:
--------------------------------------------------------------
$molecule
read
$end

$rem

jobtype sp
method PTPSS-D3
xc_grid 000099000590
basis aug-cc-pcVTZ
max_scf_cycles 200
thresh 14
scf_convergence 8
mem_total 128000
cc_memory 96000
cc_backend xm
mem_static 1500
symmetry false
sym_ignore true
scf_guess read
unrestricted false
scf_algorithm gdm
n_frozen_core 0
$end

$multipole_field
XX -0.0001
$end


--------------------------------------------------------------
 Adding empirical dispersion correction 
 ----------------------------------------------------------------
 Doing -D3(0) with
 s6  =   0.75000
 s8  =   0.87900
 rs6 =   1.54100
 rs8 =   1.00000
 -D3 energy without 3body term =     -0.0000566896 hartrees
 ----------------------------------------------------------------
             Standard Nuclear Orientation (Angstroms)
    I     Atom           X                Y                Z
 ----------------------------------------------------------------
    1      C       0.0000000000     0.0000000000     0.0000000000
    2      H       1.0790000000     0.0000000000     0.0000000000
    3      H      -0.5395000000    -0.9344000000     0.0000000000
    4      H      -0.5395000000     0.9344000000     0.0000000000
 ----------------------------------------------------------------
 Nuclear Repulsion Energy =     9.6774066879 hartrees
 There are        5 alpha and        4 beta electrons
 Requested basis set is aug-cc-pCVTZ
 There are 46 shells and 128 basis functions

 Total QAlloc Memory Limit 128000 MB
 Mega-Array Size      1467 MB
 MEM_STATIC part      1500 MB

                       Distance Matrix (Angstroms)
             C (  1)   H (  2)   H (  3)
   H (  2)  1.079000
   H (  3)  1.078964  1.868862
   H (  4)  1.078964  1.868862  1.868800
 
 Applying Cartesian multipole field
    Component          Value
    ---------          -----
     (2,0,0)       -1.00000E-04
 Nucleus-field energy     =    -0.0006236370 hartrees
 A cutoff of  1.0D-14 yielded   1081 shell pairs
 There are      8443 function pairs (     10725 Cartesian)
 
 -------------------------------------------------------
 OpenMP Integral Computing Module                       
 Release: version 1.0, May 2013, Q-Chem Inc. Pittsburgh 
 -------------------------------------------------------
 Integral Job Info:
 Integral job number is                      11
 Integral operator is                         1
 short-range coefficients                     0
 long-range coefficients              100000000
 Omega coefficients                           0
 if combine SR and LR in K                    0
 Integral screening is                        0
 Integral computing path is                   2
 max size of driver memory is            800000
 size of driver memory is                776718
 size of scratch memory is              6691272
 max col of scratch BK array              10000
 max len of scratch array in speh3          662
 max len of scratch index in speh4           32
 max int batch size is                      520
 min int batch size is                       52
 fixed nKL is                                52
 max L of basis functions is                  3
 order of int derivative is                   0
 number of shells is                         46
 number of basis is                         144
 number of cartesian basis is               144
 number of contracted shell pairs          1081
 number of primitive shell pairs           2360
 maxK2 (contraction) of shell pair           64
 max number of K2 of shell pair               1
 max number of CS2 of shell pair            196
 max number of PS2 of shell pair            248
 mem total for path MDJ                  541562
 -------------------------------------------------------
 Smallest overlap matrix eigenvalue = 1.00E-04
 Guess MOs from SCF MO coefficient file
 Reading MOs from coefficient file
 Reading MOs from coefficient file
 A restricted hybrid HF-DFT SCF calculation will be
 performed using Geometric Direct Minimization
 Exchange:     0.5000 Hartree-Fock + 0.5000 PTPSS-D3
 Correlation:  0.6250 PTPSS-D3
 Using Euler-Maclaurin-Lebedev (99,590) quadrature formula
 Dispersion:   Grimme D3
 SCF converges when RMS gradient is below 1.0E-08
Using Q-Chem read-in guess as SCF_GUESS READ specified.

 using 8 threads for integral computing
 -------------------------------------------------------
 OpenMP Integral computing Module                
 Release: version 2.0, May 2017, Q-Chem Inc. Pleasanton 
 -------------------------------------------------------
TIMEINFO->: J/JK contribution 6.34 sec.
 -------------------------------------------------------
 OpenMP BLAS3 based DFT computing Module                
 Release: version 1.0, May 2013, Q-Chem Inc. Pittsburgh 
 -------------------------------------------------------
 ---------------------------------------
  Cycle       Energy        RMS Gradient
 ---------------------------------------
    1     -39.7517908764      6.73E-04 Normal BFGS step
TIMEINFO->: J/JK contribution 6.29 sec.
    2     -39.7517921920      6.65E-04 Normal BFGS step
TIMEINFO->: J/JK contribution 6.29 sec.
    3     -39.7517925471      1.51E-04 Normal BFGS step
TIMEINFO->: J/JK contribution 6.32 sec.
    4     -39.7517925710      2.12E-05 Normal BFGS step
TIMEINFO->: J/JK contribution 6.30 sec.
    5     -39.7517925716      5.72E-06 Normal BFGS step
TIMEINFO->: J/JK contribution 6.32 sec.
    6     -39.7517925717      1.08E-06 Normal BFGS step
TIMEINFO->: J/JK contribution 6.27 sec.
    7     -39.7517925717      1.95E-07 Normal BFGS step
TIMEINFO->: J/JK contribution 6.26 sec.
    8     -39.7517925717      2.14E-08 Normal BFGS step
TIMEINFO->: J/JK contribution 6.24 sec.
    9     -39.7517925717      2.94E-09 Convergence criterion met
 ---------------------------------------
 SCF time:  CPU 264.20 s  wall 33.24 s
 SCF   energy in the final basis set = -39.75179257
 Total energy in the final basis set = -39.75179257
 
 Components of the MP2 correlation energy:
        aaaa  correlation energy =         0.0000000000 au
        abab  correlation energy =        -0.0765253907 au
        bbbb  correlation energy =         0.0000000000 au
        non-Brillouin singles    =        -0.0020181564 au

 Total  MP2   correlation energy =                    -0.07854355 au
        MP2         total energy =                   -39.83033612 au
 
 --------------------------------------------------------------
 
                    Orbital Energies (a.u.)
 --------------------------------------------------------------
 
 Alpha MOs
 -- Occupied --
-10.604  -0.790  -0.487  -0.487  -0.292
 -- Virtual --
  0.016   0.040   0.043   0.073   0.113   0.114   0.115   0.175
  0.175   0.186   0.224   0.225   0.292   0.300   0.301   0.312
  0.329   0.347   0.363   0.363   0.380   0.381   0.398   0.399
  0.544   0.551   0.664   0.664   0.745   0.745   0.758   0.758
  0.782   0.820   0.871   0.912   0.918   0.918   0.931   0.931
  0.988   0.999   0.999   1.013   1.065   1.065   1.065   1.065
  1.221   1.338   1.339   1.471   1.496   1.497   1.504   1.497
  1.549   1.549   1.615   1.799   1.799   1.888   1.951   1.951
  1.958   2.062   2.062   2.676   2.774   2.774   2.913   3.032
  3.032   3.326   3.326   3.338   3.428   3.428   3.478   3.478
  3.482   3.519   3.698   3.741   3.742   3.753   4.047   4.047
  4.182   4.201   4.201   4.427   4.451   4.620   4.620   4.640
  4.640   4.839   4.855   5.084   5.084   5.170   5.170   5.237
  5.237   5.923   6.205   6.205   6.487   6.568  15.284  16.274
 16.274  17.225  40.985  40.985  41.208  41.233  41.233  80.497
 81.212  81.212  86.663
 
 Beta MOs
 -- Occupied --
-10.588  -0.735  -0.472  -0.472
 -- Virtual --
  0.019   0.021   0.042   0.045   0.090   0.116   0.117   0.122
  0.178   0.179   0.209   0.236   0.237   0.311   0.303   0.304
  0.313   0.340   0.358   0.372   0.372   0.385   0.386   0.403
  0.404   0.593   0.579   0.670   0.671   0.753   0.753   0.777
  0.777   0.784   0.836   0.883   0.923   0.927   0.927   0.940
  0.940   0.996   1.000   1.000   1.016   1.070   1.070   1.084
  1.084   1.235   1.348   1.349   1.474   1.505   1.506   1.506
  1.530   1.558   1.559   1.656   1.807   1.807   1.909   1.965
  1.966   1.961   2.066   2.066   2.730   2.797   2.798   2.931
  3.083   3.083   3.352   3.352   3.385   3.460   3.460   3.496
  3.497   3.506   3.552   3.728   3.755   3.755   3.756   4.060
  4.060   4.189   4.217   4.217   4.456   4.459   4.622   4.623
  4.657   4.657   4.838   4.882   5.095   5.095   5.208   5.208
  5.257   5.257   5.950   6.236   6.236   6.515   6.618  15.331
 16.290  16.290  17.247  40.997  40.997  41.224  41.232  41.232
 80.501  81.209  81.209  86.668
 --------------------------------------------------------------
 
          Ground-State Mulliken Net Atomic Charges

     Atom                 Charge (a.u.)
  ----------------------------------------
      1 C                    -1.341487
      2 H                     0.447559
      3 H                     0.446964
      4 H                     0.446964
  ----------------------------------------
  Sum of atomic charges =     0.000000

 -----------------------------------------------------------------
                    Cartesian Multipole Moments
 -----------------------------------------------------------------
    Charge (ESU x 10^10)
                 0.0000
    Dipole Moment (Debye)
         X       0.0013      Y       0.0000      Z       0.0000
       Tot       0.0013
    Quadrupole Moments (Debye-Ang)
        XX      -7.2024     XY      -0.0000     YY      -7.2135
        XZ      -0.0000     YZ      -0.0000     ZZ      -9.1029
    Octopole Moments (Debye-Ang^2)
       XXX       0.9184    XXY       0.0000    XYY      -0.9109
       YYY       0.0000    XXZ      -0.0000    XYZ       0.0000
       YYZ       0.0000    XZZ       0.0005    YZZ      -0.0000
       ZZZ       0.0000
    Hexadecapole Moments (Debye-Ang^3)
      XXXX     -14.8101   XXXY      -0.0000   XXYY      -4.9447
      XYYY      -0.0000   YYYY     -14.8558   XXXZ      -0.0000
      XXYZ      -0.0000   XYYZ      -0.0000   YYYZ      -0.0000
      XXZZ      -4.8606   XYZZ       0.0000   YYZZ      -4.8667
      XZZZ      -0.0000   YZZZ      -0.0000   ZZZZ     -11.8411
 -----------------------------------------------------------------
Archival summary:
1\1\n0093.mhg0\SP\ROProcedureUnspecified\BasisUnspecified\13(2)\yhljason\SatOct313:54:412020SatOct313:54:412020\0\\#,ROProcedureUnspecified,BasisUnspecified,\\0,2\C\H,1,1.07896\H,1,1.07896,2,119.998\H,1,1.079,2,120.001,3,-180,0\\\@

 Total job time:  48.38s(wall), 384.35s(cpu) 
 Sat Oct  3 13:54:41 2020

        *************************************************************
        *                                                           *
        *  Thank you very much for using Q-Chem.  Have a nice day.  *
        *                                                           *
        *************************************************************


 
User input: 5 of 8 
 
Q-Chem Developer Version!
                  Welcome to Q-Chem
     A Quantum Leap Into The Future Of Chemistry


 Q-Chem 5.1, Q-Chem, Inc., Pleasanton, CA (2018)

 Yihan Shao,  Zhengting Gan,  E. Epifanovsky,  A. T. B. Gilbert,  M. Wormit,  
 J. Kussmann,  A. W. Lange,  A. Behn,  Jia Deng,  Xintian Feng,  D. Ghosh,  
 M. Goldey,  P. R. Horn,  L. D. Jacobson,  I. Kaliman,  T. Kus,  A. Landau,  
 Jie Liu,  E. I. Proynov,  R. M. Richard,  R. P. Steele,  E. J. Sundstrom,  
 H. L. Woodcock III,  P. M. Zimmerman,  D. Zuev,  B. Albrecht,  E. Alguire,  
 S. A. Baeppler,  D. Barton,  Z. Benda,  Y. A. Bernard,  E. J. Berquist,  
 K. B. Bravaya,  H. Burton,  D. Casanova,  Chun-Min Chang,  Yunqing Chen,  
 A. Chien,  K. D. Closser,  M. P. Coons,  S. Coriani,  S. Dasgupta,  
 A. L. Dempwolff,  M. Diedenhofen,  Hainam Do,  R. G. Edgar,  Po-Tung Fang,  
 S. Faraji,  S. Fatehi,  Qingguo Feng,  K. D. Fenk,  J. Fosso-Tande,  
 Qinghui Ge,  A. Ghysels,  G. Gidofalvi,  J. Gomes,  J. Gonthier,  A. Gunina,  
 D. Hait,  M. W. D. Hanson-Heine,  P. H. P. Harbach,  A. W. Hauser,  
 J. E. Herr,  E. G. Hohenstein,  Z. C. Holden,  Kerwin Hui,  B. C. Huynh,  
 T.-C. Jagau,  Hyunjun Ji,  B. Kaduk,  K. Khistyaev,  Jaehoon Kim,  
 P. Klunzinger,  K. Koh,  D. Kosenkov,  L. Koulias,  T. Kowalczyk,  
 C. M. Krauter,  A. Kunitsa,  Ka Un Lao,  A. Laurent,  K. V. Lawler,  
 Joonho Lee,  D. Lefrancois,  S. Lehtola,  D. S. Levine,  Yi-Pei Li,  
 You-Sheng Lin,  Fenglai Liu,  E. Livshits,  A. Luenser,  P. Manohar,  
 E. Mansoor,  S. F. Manzer,  Shan-Ping Mao,  Yuezhi Mao,  N. Mardirossian,  
 A. V. Marenich,  T. Markovich,  L. A. Martinez-Martinez,  S. A. Maurer,  
 N. J. Mayhall,  S. C. McKenzie,  J.-M. Mewes,  A. F. Morrison,  
 J. W. Mullinax,  K. Nanda,  T. S. Nguyen-Beck,  R. Olivares-Amaya,  
 J. A. Parkhill,  T. M. Perrine,  F. Plasser,  P. Pokhilko,  S. Prager,  
 A. Prociuk,  E. Ramos,  D. R. Rehn,  F. Rob,  M. Schneider,  N. Sergueev,  
 S. M. Sharada,  S. Sharma,  D. W. Small,  T. Stauch,  T. Stein,  
 Yu-Chuan Su,  A. J. W. Thom,  A. Tkatchenko,  T. Tsuchimochi,  N. M. Tubman,  
 L. Vogt,  M. L. Vidal,  O. Vydrov,  M. A. Watson,  J. Wenzel,  
 M. de Wergifosse,  T. A. Wesolowski,  A. White,  J. Witte,  A. Yamada,  
 Jun Yang,  K. Yao,  S. Yeganeh,  S. R. Yost,  Zhi-Qiang You,  A. Zech,  
 Igor Ying Zhang,  Xing Zhang,  Yan Zhao,  Ying Zhu,  B. R. Brooks,  
 G. K. L. Chan,  C. J. Cramer,  M. S. Gordon,  W. J. Hehre,  A. Klamt,  
 M. W. Schmidt,  C. D. Sherrill,  D. G. Truhlar,  A. Aspuru-Guzik,  R. Baer,  
 A. T. Bell,  N. A. Besley,  Jeng-Da Chai,  A. E. DePrince, III,  
 R. A. DiStasio Jr.,  A. Dreuw,  B. D. Dunietz,  T. R. Furlani,  
 Chao-Ping Hsu,  Yousung Jung,  Jing Kong,  D. S. Lambrecht,  WanZhen Liang,  
 C. Ochsenfeld,  V. A. Rassolov,  L. V. Slipchenko,  J. E. Subotnik,  
 T. Van Voorhis,  J. M. Herbert,  A. I. Krylov,  P. M. W. Gill,  M. Head-Gordon

 Contributors to earlier versions of Q-Chem not listed above: 
 R. D. Adamson,  B. Austin,  J. Baker,  G. J. O. Beran,  K. Brandhorst,  
 S. T. Brown,  E. F. C. Byrd,  A. K. Chakraborty,  C.-L. Cheng,  
 Siu Hung Chien,  D. M. Chipman,  D. L. Crittenden,  H. Dachsel,  
 R. J. Doerksen,  A. D. Dutoi,  L. Fusti-Molnar,  W. A. Goddard III,  
 A. Golubeva-Zadorozhnaya,  S. R. Gwaltney,  G. Hawkins,  A. Heyden,  
 S. Hirata,  G. Kedziora,  F. J. Keil,  C. Kelley,  Jihan Kim,  R. A. King,  
 R. Z. Khaliullin,  P. P. Korambath,  W. Kurlancheek,  A. M. Lee,  M. S. Lee,  
 S. V. Levchenko,  Ching Yeh Lin,  D. Liotard,  R. C. Lochan,  I. Lotan,  
 P. E. Maslen,  N. Nair,  D. P. O'Neill,  D. Neuhauser,  E. Neuscamman,  
 C. M. Oana,  R. Olson,  B. Peters,  R. Peverati,  P. A. Pieniazek,  
 Y. M. Rhee,  J. Ritchie,  M. A. Rohrdanz,  E. Rosta,  N. J. Russ,  
 H. F. Schaefer III,  N. E. Schultz,  N. Shenvi,  A. C. Simmonett,  A. Sodt,  
 D. Stuck,  K. S. Thanthiriwatte,  V. Vanovschi,  Tao Wang,  A. Warshel,  
 C. F. Williams,  Q. Wu,  X. Xu,  W. Zhang

 Please cite Q-Chem as follows:
 Y. Shao et al., Mol. Phys. 113, 184-215 (2015)
 DOI: 10.1080/00268976.2014.952696

 Q-Chem 5.1.1 for Intel X86 EM64T Linux

 Parts of Q-Chem use Armadillo 8.300.2 (Tropical Shenanigans).
 http://arma.sourceforge.net/

 Q-Chem begins on Sat Oct  3 13:54:41 2020  

Host: n0093.mhg0
0

     Scratch files written to /local/scratch/users/yhljason/CH3_PTPSS-D3_aug-cc-pcVTZ.inp20201003135024//
The previous job contains 0 fragments, simply inherited here
Input Ideriv = 0
Curr. Ideriv = -1
Max.  Ideriv = 0
Input Ideriv = 1
Curr. Ideriv = 0
Max.  Ideriv = 0

Checking the input file for inconsistencies... 	...done.

--------------------------------------------------------------
User input:
--------------------------------------------------------------
$molecule
read
$end

$rem

jobtype sp
method PTPSS-D3
xc_grid 000099000590
basis aug-cc-pcVTZ
max_scf_cycles 200
thresh 14
scf_convergence 8
mem_total 128000
cc_memory 96000
cc_backend xm
mem_static 1500
symmetry false
sym_ignore true
scf_guess read
unrestricted false
scf_algorithm gdm
n_frozen_core 0
$end

$multipole_field
YY 0.0001
$end


--------------------------------------------------------------
 Adding empirical dispersion correction 
 ----------------------------------------------------------------
 Doing -D3(0) with
 s6  =   0.75000
 s8  =   0.87900
 rs6 =   1.54100
 rs8 =   1.00000
 -D3 energy without 3body term =     -0.0000566896 hartrees
 ----------------------------------------------------------------
             Standard Nuclear Orientation (Angstroms)
    I     Atom           X                Y                Z
 ----------------------------------------------------------------
    1      C       0.0000000000     0.0000000000     0.0000000000
    2      H       1.0790000000     0.0000000000     0.0000000000
    3      H      -0.5395000000    -0.9344000000     0.0000000000
    4      H      -0.5395000000     0.9344000000     0.0000000000
 ----------------------------------------------------------------
 Nuclear Repulsion Energy =     9.6774066879 hartrees
 There are        5 alpha and        4 beta electrons
 Requested basis set is aug-cc-pCVTZ
 There are 46 shells and 128 basis functions

 Total QAlloc Memory Limit 128000 MB
 Mega-Array Size      1467 MB
 MEM_STATIC part      1500 MB

                       Distance Matrix (Angstroms)
             C (  1)   H (  2)   H (  3)
   H (  2)  1.079000
   H (  3)  1.078964  1.868862
   H (  4)  1.078964  1.868862  1.868800
 
 Applying Cartesian multipole field
    Component          Value
    ---------          -----
     (0,2,0)        1.00000E-04
 Nucleus-field energy     =     0.0006235817 hartrees
 A cutoff of  1.0D-14 yielded   1081 shell pairs
 There are      8443 function pairs (     10725 Cartesian)
 
 -------------------------------------------------------
 OpenMP Integral Computing Module                       
 Release: version 1.0, May 2013, Q-Chem Inc. Pittsburgh 
 -------------------------------------------------------
 Integral Job Info:
 Integral job number is                      11
 Integral operator is                         1
 short-range coefficients                     0
 long-range coefficients              100000000
 Omega coefficients                           0
 if combine SR and LR in K                    0
 Integral screening is                        0
 Integral computing path is                   2
 max size of driver memory is            800000
 size of driver memory is                776718
 size of scratch memory is              6691272
 max col of scratch BK array              10000
 max len of scratch array in speh3          662
 max len of scratch index in speh4           32
 max int batch size is                      520
 min int batch size is                       52
 fixed nKL is                                52
 max L of basis functions is                  3
 order of int derivative is                   0
 number of shells is                         46
 number of basis is                         144
 number of cartesian basis is               144
 number of contracted shell pairs          1081
 number of primitive shell pairs           2360
 maxK2 (contraction) of shell pair           64
 max number of K2 of shell pair               1
 max number of CS2 of shell pair            196
 max number of PS2 of shell pair            248
 mem total for path MDJ                  541562
 -------------------------------------------------------
 Smallest overlap matrix eigenvalue = 1.00E-04
 Guess MOs from SCF MO coefficient file
 Reading MOs from coefficient file
 Reading MOs from coefficient file
 A restricted hybrid HF-DFT SCF calculation will be
 performed using Geometric Direct Minimization
 Exchange:     0.5000 Hartree-Fock + 0.5000 PTPSS-D3
 Correlation:  0.6250 PTPSS-D3
 Using Euler-Maclaurin-Lebedev (99,590) quadrature formula
 Dispersion:   Grimme D3
 SCF converges when RMS gradient is below 1.0E-08
Using Q-Chem read-in guess as SCF_GUESS READ specified.

 using 8 threads for integral computing
 -------------------------------------------------------
 OpenMP Integral computing Module                
 Release: version 2.0, May 2017, Q-Chem Inc. Pleasanton 
 -------------------------------------------------------
TIMEINFO->: J/JK contribution 6.36 sec.
 -------------------------------------------------------
 OpenMP BLAS3 based DFT computing Module                
 Release: version 1.0, May 2013, Q-Chem Inc. Pittsburgh 
 -------------------------------------------------------
 ---------------------------------------
  Cycle       Energy        RMS Gradient
 ---------------------------------------
    1     -39.7528643546      5.36E-04 Normal BFGS step
TIMEINFO->: J/JK contribution 6.30 sec.
    2     -39.7528648794      6.71E-04 Normal BFGS step
TIMEINFO->: J/JK contribution 6.34 sec.
    3     -39.7528652294      5.30E-05 Normal BFGS step
TIMEINFO->: J/JK contribution 6.31 sec.
    4     -39.7528652319      2.09E-05 Normal BFGS step
TIMEINFO->: J/JK contribution 6.35 sec.
    5     -39.7528652323      2.44E-06 Normal BFGS step
TIMEINFO->: J/JK contribution 6.28 sec.
    6     -39.7528652323      5.81E-07 Normal BFGS step
TIMEINFO->: J/JK contribution 6.31 sec.
    7     -39.7528652323      2.61E-08 Normal BFGS step
TIMEINFO->: J/JK contribution 6.26 sec.
    8     -39.7528652323      2.96E-09 Convergence criterion met
 ---------------------------------------
 SCF time:  CPU 236.76 s  wall 29.79 s
 SCF   energy in the final basis set = -39.75286523
 Total energy in the final basis set = -39.75286523
 
 Components of the MP2 correlation energy:
        aaaa  correlation energy =         0.0000000000 au
        abab  correlation energy =        -0.0765294820 au
        bbbb  correlation energy =         0.0000000000 au
        non-Brillouin singles    =        -0.0020174842 au

 Total  MP2   correlation energy =                    -0.07854697 au
        MP2         total energy =                   -39.83141220 au
 
 --------------------------------------------------------------
 
                    Orbital Energies (a.u.)
 --------------------------------------------------------------
 
 Alpha MOs
 -- Occupied --
-10.605  -0.791  -0.488  -0.487  -0.292
 -- Virtual --
  0.012   0.034   0.037   0.072   0.108   0.109   0.110   0.172
  0.172   0.185   0.223   0.223   0.291   0.297   0.298   0.309
  0.327   0.344   0.361   0.362   0.377   0.378   0.395   0.396
  0.543   0.550   0.662   0.663   0.743   0.743   0.757   0.757
  0.781   0.819   0.870   0.911   0.916   0.917   0.929   0.929
  0.986   0.997   0.997   1.011   1.063   1.064   1.063   1.064
  1.220   1.337   1.338   1.469   1.495   1.496   1.502   1.496
  1.548   1.548   1.614   1.798   1.798   1.887   1.950   1.950
  1.957   2.061   2.061   2.676   2.773   2.773   2.913   3.031
  3.031   3.325   3.325   3.338   3.427   3.427   3.477   3.477
  3.481   3.519   3.697   3.740   3.741   3.752   4.046   4.046
  4.181   4.201   4.201   4.426   4.450   4.619   4.619   4.639
  4.639   4.839   4.855   5.083   5.083   5.170   5.170   5.236
  5.236   5.922   6.204   6.204   6.486   6.567  15.283  16.273
 16.273  17.224  40.984  40.984  41.207  41.232  41.232  80.496
 81.211  81.211  86.663
 
 Beta MOs
 -- Occupied --
-10.589  -0.735  -0.472  -0.472
 -- Virtual --
  0.018   0.017   0.035   0.038   0.088   0.111   0.112   0.117
  0.175   0.176   0.208   0.235   0.235   0.309   0.300   0.301
  0.310   0.338   0.355   0.370   0.370   0.382   0.383   0.401
  0.401   0.592   0.578   0.669   0.669   0.751   0.751   0.776
  0.776   0.782   0.834   0.882   0.922   0.925   0.926   0.938
  0.938   0.995   0.998   0.998   1.015   1.068   1.068   1.083
  1.083   1.234   1.347   1.348   1.473   1.504   1.504   1.504
  1.529   1.557   1.558   1.655   1.805   1.806   1.908   1.964
  1.965   1.960   2.065   2.065   2.730   2.797   2.797   2.931
  3.082   3.082   3.351   3.352   3.385   3.459   3.459   3.496
  3.496   3.505   3.551   3.727   3.754   3.754   3.755   4.059
  4.059   4.188   4.216   4.216   4.455   4.458   4.622   4.622
  4.656   4.656   4.837   4.882   5.094   5.094   5.208   5.208
  5.256   5.256   5.950   6.235   6.235   6.514   6.617  15.331
 16.289  16.289  17.247  40.997  40.997  41.223  41.231  41.231
 80.501  81.208  81.208  86.667
 --------------------------------------------------------------
 
          Ground-State Mulliken Net Atomic Charges

     Atom                 Charge (a.u.)
  ----------------------------------------
      1 C                    -1.341602
      2 H                     0.447593
      3 H                     0.447004
      4 H                     0.447004
  ----------------------------------------
  Sum of atomic charges =     0.000000

 -----------------------------------------------------------------
                    Cartesian Multipole Moments
 -----------------------------------------------------------------
    Charge (ESU x 10^10)
                -0.0000
    Dipole Moment (Debye)
         X       0.0013      Y       0.0000      Z       0.0000
       Tot       0.0013
    Quadrupole Moments (Debye-Ang)
        XX      -7.2142     XY      -0.0000     YY      -7.2253
        XZ      -0.0000     YZ      -0.0000     ZZ      -9.1059
    Octopole Moments (Debye-Ang^2)
       XXX       0.9133    XXY       0.0000    XYY      -0.9057
       YYY       0.0000    XXZ       0.0000    XYZ      -0.0000
       YYZ       0.0000    XZZ       0.0005    YZZ       0.0000
       ZZZ       0.0000
    Hexadecapole Moments (Debye-Ang^3)
      XXXX     -14.8598   XXXY      -0.0000   XXYY      -4.9613
      XYYY      -0.0000   YYYY     -14.9059   XXXZ      -0.0000
      XXYZ       0.0000   XYYZ      -0.0000   YYYZ      -0.0000
      XXZZ      -4.8702   XYZZ       0.0000   YYZZ      -4.8764
      XZZZ      -0.0000   YZZZ      -0.0000   ZZZZ     -11.8573
 -----------------------------------------------------------------
Archival summary:
1\1\n0093.mhg0\SP\ROProcedureUnspecified\BasisUnspecified\13(2)\yhljason\SatOct313:55:262020SatOct313:55:262020\0\\#,ROProcedureUnspecified,BasisUnspecified,\\0,2\C\H,1,1.07896\H,1,1.07896,2,119.998\H,1,1.079,2,120.001,3,-180,0\\\@

 Total job time:  44.93s(wall), 356.80s(cpu) 
 Sat Oct  3 13:55:26 2020

        *************************************************************
        *                                                           *
        *  Thank you very much for using Q-Chem.  Have a nice day.  *
        *                                                           *
        *************************************************************


 
User input: 6 of 8 
 
Q-Chem Developer Version!
                  Welcome to Q-Chem
     A Quantum Leap Into The Future Of Chemistry


 Q-Chem 5.1, Q-Chem, Inc., Pleasanton, CA (2018)

 Yihan Shao,  Zhengting Gan,  E. Epifanovsky,  A. T. B. Gilbert,  M. Wormit,  
 J. Kussmann,  A. W. Lange,  A. Behn,  Jia Deng,  Xintian Feng,  D. Ghosh,  
 M. Goldey,  P. R. Horn,  L. D. Jacobson,  I. Kaliman,  T. Kus,  A. Landau,  
 Jie Liu,  E. I. Proynov,  R. M. Richard,  R. P. Steele,  E. J. Sundstrom,  
 H. L. Woodcock III,  P. M. Zimmerman,  D. Zuev,  B. Albrecht,  E. Alguire,  
 S. A. Baeppler,  D. Barton,  Z. Benda,  Y. A. Bernard,  E. J. Berquist,  
 K. B. Bravaya,  H. Burton,  D. Casanova,  Chun-Min Chang,  Yunqing Chen,  
 A. Chien,  K. D. Closser,  M. P. Coons,  S. Coriani,  S. Dasgupta,  
 A. L. Dempwolff,  M. Diedenhofen,  Hainam Do,  R. G. Edgar,  Po-Tung Fang,  
 S. Faraji,  S. Fatehi,  Qingguo Feng,  K. D. Fenk,  J. Fosso-Tande,  
 Qinghui Ge,  A. Ghysels,  G. Gidofalvi,  J. Gomes,  J. Gonthier,  A. Gunina,  
 D. Hait,  M. W. D. Hanson-Heine,  P. H. P. Harbach,  A. W. Hauser,  
 J. E. Herr,  E. G. Hohenstein,  Z. C. Holden,  Kerwin Hui,  B. C. Huynh,  
 T.-C. Jagau,  Hyunjun Ji,  B. Kaduk,  K. Khistyaev,  Jaehoon Kim,  
 P. Klunzinger,  K. Koh,  D. Kosenkov,  L. Koulias,  T. Kowalczyk,  
 C. M. Krauter,  A. Kunitsa,  Ka Un Lao,  A. Laurent,  K. V. Lawler,  
 Joonho Lee,  D. Lefrancois,  S. Lehtola,  D. S. Levine,  Yi-Pei Li,  
 You-Sheng Lin,  Fenglai Liu,  E. Livshits,  A. Luenser,  P. Manohar,  
 E. Mansoor,  S. F. Manzer,  Shan-Ping Mao,  Yuezhi Mao,  N. Mardirossian,  
 A. V. Marenich,  T. Markovich,  L. A. Martinez-Martinez,  S. A. Maurer,  
 N. J. Mayhall,  S. C. McKenzie,  J.-M. Mewes,  A. F. Morrison,  
 J. W. Mullinax,  K. Nanda,  T. S. Nguyen-Beck,  R. Olivares-Amaya,  
 J. A. Parkhill,  T. M. Perrine,  F. Plasser,  P. Pokhilko,  S. Prager,  
 A. Prociuk,  E. Ramos,  D. R. Rehn,  F. Rob,  M. Schneider,  N. Sergueev,  
 S. M. Sharada,  S. Sharma,  D. W. Small,  T. Stauch,  T. Stein,  
 Yu-Chuan Su,  A. J. W. Thom,  A. Tkatchenko,  T. Tsuchimochi,  N. M. Tubman,  
 L. Vogt,  M. L. Vidal,  O. Vydrov,  M. A. Watson,  J. Wenzel,  
 M. de Wergifosse,  T. A. Wesolowski,  A. White,  J. Witte,  A. Yamada,  
 Jun Yang,  K. Yao,  S. Yeganeh,  S. R. Yost,  Zhi-Qiang You,  A. Zech,  
 Igor Ying Zhang,  Xing Zhang,  Yan Zhao,  Ying Zhu,  B. R. Brooks,  
 G. K. L. Chan,  C. J. Cramer,  M. S. Gordon,  W. J. Hehre,  A. Klamt,  
 M. W. Schmidt,  C. D. Sherrill,  D. G. Truhlar,  A. Aspuru-Guzik,  R. Baer,  
 A. T. Bell,  N. A. Besley,  Jeng-Da Chai,  A. E. DePrince, III,  
 R. A. DiStasio Jr.,  A. Dreuw,  B. D. Dunietz,  T. R. Furlani,  
 Chao-Ping Hsu,  Yousung Jung,  Jing Kong,  D. S. Lambrecht,  WanZhen Liang,  
 C. Ochsenfeld,  V. A. Rassolov,  L. V. Slipchenko,  J. E. Subotnik,  
 T. Van Voorhis,  J. M. Herbert,  A. I. Krylov,  P. M. W. Gill,  M. Head-Gordon

 Contributors to earlier versions of Q-Chem not listed above: 
 R. D. Adamson,  B. Austin,  J. Baker,  G. J. O. Beran,  K. Brandhorst,  
 S. T. Brown,  E. F. C. Byrd,  A. K. Chakraborty,  C.-L. Cheng,  
 Siu Hung Chien,  D. M. Chipman,  D. L. Crittenden,  H. Dachsel,  
 R. J. Doerksen,  A. D. Dutoi,  L. Fusti-Molnar,  W. A. Goddard III,  
 A. Golubeva-Zadorozhnaya,  S. R. Gwaltney,  G. Hawkins,  A. Heyden,  
 S. Hirata,  G. Kedziora,  F. J. Keil,  C. Kelley,  Jihan Kim,  R. A. King,  
 R. Z. Khaliullin,  P. P. Korambath,  W. Kurlancheek,  A. M. Lee,  M. S. Lee,  
 S. V. Levchenko,  Ching Yeh Lin,  D. Liotard,  R. C. Lochan,  I. Lotan,  
 P. E. Maslen,  N. Nair,  D. P. O'Neill,  D. Neuhauser,  E. Neuscamman,  
 C. M. Oana,  R. Olson,  B. Peters,  R. Peverati,  P. A. Pieniazek,  
 Y. M. Rhee,  J. Ritchie,  M. A. Rohrdanz,  E. Rosta,  N. J. Russ,  
 H. F. Schaefer III,  N. E. Schultz,  N. Shenvi,  A. C. Simmonett,  A. Sodt,  
 D. Stuck,  K. S. Thanthiriwatte,  V. Vanovschi,  Tao Wang,  A. Warshel,  
 C. F. Williams,  Q. Wu,  X. Xu,  W. Zhang

 Please cite Q-Chem as follows:
 Y. Shao et al., Mol. Phys. 113, 184-215 (2015)
 DOI: 10.1080/00268976.2014.952696

 Q-Chem 5.1.1 for Intel X86 EM64T Linux

 Parts of Q-Chem use Armadillo 8.300.2 (Tropical Shenanigans).
 http://arma.sourceforge.net/

 Q-Chem begins on Sat Oct  3 13:55:26 2020  

Host: n0093.mhg0
0

     Scratch files written to /local/scratch/users/yhljason/CH3_PTPSS-D3_aug-cc-pcVTZ.inp20201003135024//
The previous job contains 0 fragments, simply inherited here
Input Ideriv = 0
Curr. Ideriv = -1
Max.  Ideriv = 0
Input Ideriv = 1
Curr. Ideriv = 0
Max.  Ideriv = 0

Checking the input file for inconsistencies... 	...done.

--------------------------------------------------------------
User input:
--------------------------------------------------------------
$molecule
read
$end

$rem

jobtype sp
method PTPSS-D3
xc_grid 000099000590
basis aug-cc-pcVTZ
max_scf_cycles 200
thresh 14
scf_convergence 8
mem_total 128000
cc_memory 96000
cc_backend xm
mem_static 1500
symmetry false
sym_ignore true
scf_guess read
unrestricted false
scf_algorithm gdm
n_frozen_core 0
$end

$multipole_field
YY -0.0001
$end


--------------------------------------------------------------
 Adding empirical dispersion correction 
 ----------------------------------------------------------------
 Doing -D3(0) with
 s6  =   0.75000
 s8  =   0.87900
 rs6 =   1.54100
 rs8 =   1.00000
 -D3 energy without 3body term =     -0.0000566896 hartrees
 ----------------------------------------------------------------
             Standard Nuclear Orientation (Angstroms)
    I     Atom           X                Y                Z
 ----------------------------------------------------------------
    1      C       0.0000000000     0.0000000000     0.0000000000
    2      H       1.0790000000     0.0000000000     0.0000000000
    3      H      -0.5395000000    -0.9344000000     0.0000000000
    4      H      -0.5395000000     0.9344000000     0.0000000000
 ----------------------------------------------------------------
 Nuclear Repulsion Energy =     9.6774066879 hartrees
 There are        5 alpha and        4 beta electrons
 Requested basis set is aug-cc-pCVTZ
 There are 46 shells and 128 basis functions

 Total QAlloc Memory Limit 128000 MB
 Mega-Array Size      1467 MB
 MEM_STATIC part      1500 MB

                       Distance Matrix (Angstroms)
             C (  1)   H (  2)   H (  3)
   H (  2)  1.079000
   H (  3)  1.078964  1.868862
   H (  4)  1.078964  1.868862  1.868800
 
 Applying Cartesian multipole field
    Component          Value
    ---------          -----
     (0,2,0)       -1.00000E-04
 Nucleus-field energy     =    -0.0006235817 hartrees
 A cutoff of  1.0D-14 yielded   1081 shell pairs
 There are      8443 function pairs (     10725 Cartesian)
 
 -------------------------------------------------------
 OpenMP Integral Computing Module                       
 Release: version 1.0, May 2013, Q-Chem Inc. Pittsburgh 
 -------------------------------------------------------
 Integral Job Info:
 Integral job number is                      11
 Integral operator is                         1
 short-range coefficients                     0
 long-range coefficients              100000000
 Omega coefficients                           0
 if combine SR and LR in K                    0
 Integral screening is                        0
 Integral computing path is                   2
 max size of driver memory is            800000
 size of driver memory is                776718
 size of scratch memory is              6691272
 max col of scratch BK array              10000
 max len of scratch array in speh3          662
 max len of scratch index in speh4           32
 max int batch size is                      520
 min int batch size is                       52
 fixed nKL is                                52
 max L of basis functions is                  3
 order of int derivative is                   0
 number of shells is                         46
 number of basis is                         144
 number of cartesian basis is               144
 number of contracted shell pairs          1081
 number of primitive shell pairs           2360
 maxK2 (contraction) of shell pair           64
 max number of K2 of shell pair               1
 max number of CS2 of shell pair            196
 max number of PS2 of shell pair            248
 mem total for path MDJ                  541562
 -------------------------------------------------------
 Smallest overlap matrix eigenvalue = 1.00E-04
 Guess MOs from SCF MO coefficient file
 Reading MOs from coefficient file
 Reading MOs from coefficient file
 A restricted hybrid HF-DFT SCF calculation will be
 performed using Geometric Direct Minimization
 Exchange:     0.5000 Hartree-Fock + 0.5000 PTPSS-D3
 Correlation:  0.6250 PTPSS-D3
 Using Euler-Maclaurin-Lebedev (99,590) quadrature formula
 Dispersion:   Grimme D3
 SCF converges when RMS gradient is below 1.0E-08
Using Q-Chem read-in guess as SCF_GUESS READ specified.

 using 8 threads for integral computing
 -------------------------------------------------------
 OpenMP Integral computing Module                
 Release: version 2.0, May 2017, Q-Chem Inc. Pleasanton 
 -------------------------------------------------------
TIMEINFO->: J/JK contribution 6.32 sec.
 -------------------------------------------------------
 OpenMP BLAS3 based DFT computing Module                
 Release: version 1.0, May 2013, Q-Chem Inc. Pittsburgh 
 -------------------------------------------------------
 ---------------------------------------
  Cycle       Energy        RMS Gradient
 ---------------------------------------
    1     -39.7517908632      6.74E-04 Normal BFGS step
TIMEINFO->: J/JK contribution 6.28 sec.
    2     -39.7517921787      6.65E-04 Normal BFGS step
TIMEINFO->: J/JK contribution 6.30 sec.
    3     -39.7517925338      1.51E-04 Normal BFGS step
TIMEINFO->: J/JK contribution 6.35 sec.
    4     -39.7517925577      2.12E-05 Normal BFGS step
TIMEINFO->: J/JK contribution 6.26 sec.
    5     -39.7517925583      5.72E-06 Normal BFGS step
TIMEINFO->: J/JK contribution 6.30 sec.
    6     -39.7517925583      1.08E-06 Normal BFGS step
TIMEINFO->: J/JK contribution 6.25 sec.
    7     -39.7517925583      1.95E-07 Normal BFGS step
TIMEINFO->: J/JK contribution 6.25 sec.
    8     -39.7517925583      2.15E-08 Normal BFGS step
TIMEINFO->: J/JK contribution 6.23 sec.
    9     -39.7517925583      2.96E-09 Convergence criterion met
 ---------------------------------------
 SCF time:  CPU 263.86 s  wall 33.21 s
 SCF   energy in the final basis set = -39.75179256
 Total energy in the final basis set = -39.75179256
 
 Components of the MP2 correlation energy:
        aaaa  correlation energy =         0.0000000000 au
        abab  correlation energy =        -0.0765253909 au
        bbbb  correlation energy =         0.0000000000 au
        non-Brillouin singles    =        -0.0020181565 au

 Total  MP2   correlation energy =                    -0.07854355 au
        MP2         total energy =                   -39.83033611 au
 
 --------------------------------------------------------------
 
                    Orbital Energies (a.u.)
 --------------------------------------------------------------
 
 Alpha MOs
 -- Occupied --
-10.604  -0.790  -0.487  -0.487  -0.292
 -- Virtual --
  0.016   0.040   0.043   0.073   0.112   0.114   0.115   0.175
  0.175   0.186   0.224   0.225   0.292   0.300   0.301   0.312
  0.329   0.347   0.363   0.363   0.380   0.381   0.398   0.399
  0.544   0.551   0.664   0.664   0.745   0.745   0.758   0.758
  0.782   0.820   0.871   0.912   0.918   0.918   0.931   0.931
  0.988   0.999   0.999   1.013   1.065   1.065   1.065   1.065
  1.221   1.338   1.339   1.471   1.496   1.497   1.504   1.497
  1.549   1.549   1.615   1.799   1.799   1.888   1.951   1.951
  1.958   2.062   2.062   2.676   2.774   2.774   2.913   3.032
  3.032   3.326   3.326   3.338   3.428   3.428   3.477   3.478
  3.482   3.519   3.698   3.741   3.742   3.753   4.047   4.047
  4.182   4.201   4.201   4.427   4.451   4.620   4.620   4.640
  4.640   4.839   4.855   5.084   5.084   5.170   5.170   5.237
  5.237   5.923   6.205   6.205   6.487   6.568  15.284  16.274
 16.274  17.225  40.985  40.985  41.208  41.233  41.233  80.497
 81.212  81.212  86.663
 
 Beta MOs
 -- Occupied --
-10.588  -0.735  -0.472  -0.472
 -- Virtual --
  0.019   0.021   0.042   0.045   0.090   0.116   0.117   0.122
  0.178   0.179   0.209   0.236   0.237   0.311   0.303   0.304
  0.313   0.340   0.358   0.372   0.372   0.385   0.386   0.403
  0.404   0.593   0.579   0.670   0.671   0.753   0.753   0.777
  0.777   0.784   0.836   0.883   0.923   0.927   0.927   0.940
  0.940   0.996   1.000   1.000   1.016   1.070   1.070   1.084
  1.084   1.235   1.348   1.349   1.474   1.505   1.506   1.506
  1.530   1.558   1.559   1.656   1.807   1.807   1.909   1.965
  1.966   1.961   2.066   2.066   2.730   2.797   2.798   2.931
  3.083   3.083   3.352   3.352   3.385   3.460   3.460   3.496
  3.497   3.506   3.552   3.728   3.755   3.755   3.756   4.060
  4.060   4.189   4.217   4.217   4.456   4.459   4.622   4.623
  4.657   4.657   4.838   4.882   5.095   5.095   5.208   5.208
  5.257   5.257   5.950   6.236   6.236   6.515   6.618  15.331
 16.290  16.290  17.247  40.997  40.997  41.224  41.232  41.232
 80.501  81.209  81.209  86.668
 --------------------------------------------------------------
 
          Ground-State Mulliken Net Atomic Charges

     Atom                 Charge (a.u.)
  ----------------------------------------
      1 C                    -1.341487
      2 H                     0.446764
      3 H                     0.447362
      4 H                     0.447362
  ----------------------------------------
  Sum of atomic charges =     0.000000

 -----------------------------------------------------------------
                    Cartesian Multipole Moments
 -----------------------------------------------------------------
    Charge (ESU x 10^10)
                 0.0000
    Dipole Moment (Debye)
         X      -0.0014      Y       0.0000      Z       0.0000
       Tot       0.0014
    Quadrupole Moments (Debye-Ang)
        XX      -7.2133     XY      -0.0000     YY      -7.2026
        XZ       0.0000     YZ      -0.0000     ZZ      -9.1029
    Octopole Moments (Debye-Ang^2)
       XXX       0.9070    XXY       0.0000    XYY      -0.9147
       YYY       0.0000    XXZ      -0.0000    XYZ      -0.0000
       YYZ       0.0000    XZZ      -0.0006    YZZ       0.0000
       ZZZ      -0.0000
    Hexadecapole Moments (Debye-Ang^3)
      XXXX     -14.8567   XXXY      -0.0000   XXYY      -4.9441
      XYYY      -0.0000   YYYY     -14.8103   XXXZ      -0.0000
      XXYZ      -0.0000   XYYZ      -0.0000   YYYZ      -0.0000
      XXZZ      -4.8668   XYZZ      -0.0000   YYZZ      -4.8604
      XZZZ      -0.0000   YZZZ      -0.0000   ZZZZ     -11.8411
 -----------------------------------------------------------------
Archival summary:
1\1\n0093.mhg0\SP\ROProcedureUnspecified\BasisUnspecified\13(2)\yhljason\SatOct313:56:152020SatOct313:56:152020\0\\#,ROProcedureUnspecified,BasisUnspecified,\\0,2\C\H,1,1.07896\H,1,1.07896,2,119.998\H,1,1.079,2,120.001,3,-180,0\\\@

 Total job time:  48.36s(wall), 384.06s(cpu) 
 Sat Oct  3 13:56:15 2020

        *************************************************************
        *                                                           *
        *  Thank you very much for using Q-Chem.  Have a nice day.  *
        *                                                           *
[...]
  0.542   0.550   0.663   0.663   0.744   0.744   0.757   0.757
  0.781   0.819   0.870   0.911   0.917   0.917   0.929   0.930
  0.986   0.998   0.998   1.012   1.064   1.064   1.064   1.064
  1.220   1.338   1.338   1.470   1.496   1.496   1.503   1.496
  1.548   1.548   1.614   1.798   1.798   1.887   1.950   1.950
  1.957   2.061   2.061   2.676   2.773   2.773   2.913   3.031
  3.031   3.325   3.326   3.338   3.427   3.428   3.477   3.477
  3.481   3.519   3.697   3.741   3.741   3.752   4.046   4.046
  4.182   4.201   4.201   4.426   4.450   4.619   4.619   4.639
  4.639   4.839   4.855   5.083   5.083   5.170   5.170   5.236
  5.236   5.922   6.204   6.204   6.487   6.567  15.283  16.273
 16.273  17.224  40.984  40.984  41.207  41.232  41.232  80.496
 81.211  81.211  86.663
 
 Beta MOs
 -- Occupied --
-10.589  -0.735  -0.472  -0.472
 -- Virtual --
  0.018   0.017   0.039   0.039   0.086   0.113   0.113   0.118
  0.176   0.176   0.207   0.235   0.235   0.309   0.301   0.301
  0.311   0.338   0.356   0.370   0.370   0.383   0.383   0.402
  0.402   0.591   0.578   0.669   0.669   0.751   0.751   0.776
  0.776   0.783   0.834   0.882   0.922   0.926   0.926   0.939
  0.939   0.995   0.999   0.999   1.015   1.069   1.069   1.083
  1.083   1.234   1.348   1.348   1.473   1.505   1.505   1.505
  1.529   1.558   1.558   1.655   1.806   1.806   1.908   1.965
  1.965   1.960   2.065   2.065   2.729   2.797   2.797   2.931
  3.082   3.082   3.352   3.352   3.385   3.459   3.459   3.496
  3.496   3.505   3.551   3.727   3.754   3.754   3.756   4.060
  4.060   4.188   4.216   4.216   4.455   4.458   4.622   4.622
  4.656   4.656   4.838   4.882   5.094   5.094   5.208   5.208
  5.257   5.257   5.950   6.235   6.235   6.514   6.617  15.331
 16.289  16.290  17.247  40.997  40.997  41.223  41.231  41.231
 80.501  81.208  81.209  86.667
 --------------------------------------------------------------
 
          Ground-State Mulliken Net Atomic Charges

     Atom                 Charge (a.u.)
  ----------------------------------------
      1 C                    -1.342943
      2 H                     0.447646
      3 H                     0.447648
      4 H                     0.447648
  ----------------------------------------
  Sum of atomic charges =     0.000000

 -----------------------------------------------------------------
                    Cartesian Multipole Moments
 -----------------------------------------------------------------
    Charge (ESU x 10^10)
                 0.0000
    Dipole Moment (Debye)
         X      -0.0000      Y       0.0000      Z       0.0000
       Tot       0.0000
    Quadrupole Moments (Debye-Ang)
        XX      -7.2152     XY       0.0000     YY      -7.2154
        XZ      -0.0000     YZ      -0.0000     ZZ      -9.1156
    Octopole Moments (Debye-Ang^2)
       XXX       0.9110    XXY       0.0000    XYY      -0.9111
       YYY       0.0000    XXZ      -0.0000    XYZ      -0.0000
       YYZ       0.0000    XZZ      -0.0000    YZZ       0.0000
       ZZZ       0.0000
    Hexadecapole Moments (Debye-Ang^3)
      XXXX     -14.8668   XXXY      -0.0000   XXYY      -4.9555
      XYYY       0.0000   YYYY     -14.8665   XXXZ      -0.0000
      XXYZ      -0.0000   XYYZ      -0.0000   YYYZ      -0.0000
      XXZZ      -4.8810   XYZZ       0.0000   YYZZ      -4.8809
      XZZZ      -0.0000   YZZZ      -0.0000   ZZZZ     -11.9146
 -----------------------------------------------------------------
Archival summary:
1\1\n0093.mhg0\SP\ROProcedureUnspecified\BasisUnspecified\13(2)\yhljason\SatOct313:56:592020SatOct313:56:592020\0\\#,ROProcedureUnspecified,BasisUnspecified,\\0,2\C\H,1,1.07896\H,1,1.07896,2,119.998\H,1,1.079,2,120.001,3,-180,0\\\@

 Total job time:  44.68s(wall), 354.85s(cpu) 
 Sat Oct  3 13:56:59 2020

        *************************************************************
        *                                                           *
        *  Thank you very much for using Q-Chem.  Have a nice day.  *
        *                                                           *
        *************************************************************


 
User input: 8 of 8 
 
Q-Chem Developer Version!
                  Welcome to Q-Chem
     A Quantum Leap Into The Future Of Chemistry


 Q-Chem 5.1, Q-Chem, Inc., Pleasanton, CA (2018)

 Yihan Shao,  Zhengting Gan,  E. Epifanovsky,  A. T. B. Gilbert,  M. Wormit,  
 J. Kussmann,  A. W. Lange,  A. Behn,  Jia Deng,  Xintian Feng,  D. Ghosh,  
 M. Goldey,  P. R. Horn,  L. D. Jacobson,  I. Kaliman,  T. Kus,  A. Landau,  
 Jie Liu,  E. I. Proynov,  R. M. Richard,  R. P. Steele,  E. J. Sundstrom,  
 H. L. Woodcock III,  P. M. Zimmerman,  D. Zuev,  B. Albrecht,  E. Alguire,  
 S. A. Baeppler,  D. Barton,  Z. Benda,  Y. A. Bernard,  E. J. Berquist,  
 K. B. Bravaya,  H. Burton,  D. Casanova,  Chun-Min Chang,  Yunqing Chen,  
 A. Chien,  K. D. Closser,  M. P. Coons,  S. Coriani,  S. Dasgupta,  
 A. L. Dempwolff,  M. Diedenhofen,  Hainam Do,  R. G. Edgar,  Po-Tung Fang,  
 S. Faraji,  S. Fatehi,  Qingguo Feng,  K. D. Fenk,  J. Fosso-Tande,  
 Qinghui Ge,  A. Ghysels,  G. Gidofalvi,  J. Gomes,  J. Gonthier,  A. Gunina,  
 D. Hait,  M. W. D. Hanson-Heine,  P. H. P. Harbach,  A. W. Hauser,  
 J. E. Herr,  E. G. Hohenstein,  Z. C. Holden,  Kerwin Hui,  B. C. Huynh,  
 T.-C. Jagau,  Hyunjun Ji,  B. Kaduk,  K. Khistyaev,  Jaehoon Kim,  
 P. Klunzinger,  K. Koh,  D. Kosenkov,  L. Koulias,  T. Kowalczyk,  
 C. M. Krauter,  A. Kunitsa,  Ka Un Lao,  A. Laurent,  K. V. Lawler,  
 Joonho Lee,  D. Lefrancois,  S. Lehtola,  D. S. Levine,  Yi-Pei Li,  
 You-Sheng Lin,  Fenglai Liu,  E. Livshits,  A. Luenser,  P. Manohar,  
 E. Mansoor,  S. F. Manzer,  Shan-Ping Mao,  Yuezhi Mao,  N. Mardirossian,  
 A. V. Marenich,  T. Markovich,  L. A. Martinez-Martinez,  S. A. Maurer,  
 N. J. Mayhall,  S. C. McKenzie,  J.-M. Mewes,  A. F. Morrison,  
 J. W. Mullinax,  K. Nanda,  T. S. Nguyen-Beck,  R. Olivares-Amaya,  
 J. A. Parkhill,  T. M. Perrine,  F. Plasser,  P. Pokhilko,  S. Prager,  
 A. Prociuk,  E. Ramos,  D. R. Rehn,  F. Rob,  M. Schneider,  N. Sergueev,  
 S. M. Sharada,  S. Sharma,  D. W. Small,  T. Stauch,  T. Stein,  
 Yu-Chuan Su,  A. J. W. Thom,  A. Tkatchenko,  T. Tsuchimochi,  N. M. Tubman,  
 L. Vogt,  M. L. Vidal,  O. Vydrov,  M. A. Watson,  J. Wenzel,  
 M. de Wergifosse,  T. A. Wesolowski,  A. White,  J. Witte,  A. Yamada,  
 Jun Yang,  K. Yao,  S. Yeganeh,  S. R. Yost,  Zhi-Qiang You,  A. Zech,  
 Igor Ying Zhang,  Xing Zhang,  Yan Zhao,  Ying Zhu,  B. R. Brooks,  
 G. K. L. Chan,  C. J. Cramer,  M. S. Gordon,  W. J. Hehre,  A. Klamt,  
 M. W. Schmidt,  C. D. Sherrill,  D. G. Truhlar,  A. Aspuru-Guzik,  R. Baer,  
 A. T. Bell,  N. A. Besley,  Jeng-Da Chai,  A. E. DePrince, III,  
 R. A. DiStasio Jr.,  A. Dreuw,  B. D. Dunietz,  T. R. Furlani,  
 Chao-Ping Hsu,  Yousung Jung,  Jing Kong,  D. S. Lambrecht,  WanZhen Liang,  
 C. Ochsenfeld,  V. A. Rassolov,  L. V. Slipchenko,  J. E. Subotnik,  
 T. Van Voorhis,  J. M. Herbert,  A. I. Krylov,  P. M. W. Gill,  M. Head-Gordon

 Contributors to earlier versions of Q-Chem not listed above: 
 R. D. Adamson,  B. Austin,  J. Baker,  G. J. O. Beran,  K. Brandhorst,  
 S. T. Brown,  E. F. C. Byrd,  A. K. Chakraborty,  C.-L. Cheng,  
 Siu Hung Chien,  D. M. Chipman,  D. L. Crittenden,  H. Dachsel,  
 R. J. Doerksen,  A. D. Dutoi,  L. Fusti-Molnar,  W. A. Goddard III,  
 A. Golubeva-Zadorozhnaya,  S. R. Gwaltney,  G. Hawkins,  A. Heyden,  
 S. Hirata,  G. Kedziora,  F. J. Keil,  C. Kelley,  Jihan Kim,  R. A. King,  
 R. Z. Khaliullin,  P. P. Korambath,  W. Kurlancheek,  A. M. Lee,  M. S. Lee,  
 S. V. Levchenko,  Ching Yeh Lin,  D. Liotard,  R. C. Lochan,  I. Lotan,  
 P. E. Maslen,  N. Nair,  D. P. O'Neill,  D. Neuhauser,  E. Neuscamman,  
 C. M. Oana,  R. Olson,  B. Peters,  R. Peverati,  P. A. Pieniazek,  
 Y. M. Rhee,  J. Ritchie,  M. A. Rohrdanz,  E. Rosta,  N. J. Russ,  
 H. F. Schaefer III,  N. E. Schultz,  N. Shenvi,  A. C. Simmonett,  A. Sodt,  
 D. Stuck,  K. S. Thanthiriwatte,  V. Vanovschi,  Tao Wang,  A. Warshel,  
 C. F. Williams,  Q. Wu,  X. Xu,  W. Zhang

 Please cite Q-Chem as follows:
 Y. Shao et al., Mol. Phys. 113, 184-215 (2015)
 DOI: 10.1080/00268976.2014.952696

 Q-Chem 5.1.1 for Intel X86 EM64T Linux

 Parts of Q-Chem use Armadillo 8.300.2 (Tropical Shenanigans).
 http://arma.sourceforge.net/

 Q-Chem begins on Sat Oct  3 13:57:00 2020  

Host: n0093.mhg0
0

     Scratch files written to /local/scratch/users/yhljason/CH3_PTPSS-D3_aug-cc-pcVTZ.inp20201003135024//
The previous job contains 0 fragments, simply inherited here
Input Ideriv = 0
Curr. Ideriv = -1
Max.  Ideriv = 0
Input Ideriv = 1
Curr. Ideriv = 0
Max.  Ideriv = 0

Checking the input file for inconsistencies... 	...done.

--------------------------------------------------------------
User input:
--------------------------------------------------------------
$molecule
read
$end

$rem

jobtype sp
method PTPSS-D3
xc_grid 000099000590
basis aug-cc-pcVTZ
max_scf_cycles 200
thresh 14
scf_convergence 8
mem_total 128000
cc_memory 96000
cc_backend xm
mem_static 1500
symmetry false
sym_ignore true
scf_guess read
unrestricted false
scf_algorithm gdm
n_frozen_core 0
$end

$multipole_field
ZZ -0.0001
$end

--------------------------------------------------------------
 Adding empirical dispersion correction 
 ----------------------------------------------------------------
 Doing -D3(0) with
 s6  =   0.75000
 s8  =   0.87900
 rs6 =   1.54100
 rs8 =   1.00000
 -D3 energy without 3body term =     -0.0000566896 hartrees
 ----------------------------------------------------------------
             Standard Nuclear Orientation (Angstroms)
    I     Atom           X                Y                Z
 ----------------------------------------------------------------
    1      C       0.0000000000     0.0000000000     0.0000000000
    2      H       1.0790000000     0.0000000000     0.0000000000
    3      H      -0.5395000000    -0.9344000000     0.0000000000
    4      H      -0.5395000000     0.9344000000     0.0000000000
 ----------------------------------------------------------------
 Nuclear Repulsion Energy =     9.6774066879 hartrees
 There are        5 alpha and        4 beta electrons
 Requested basis set is aug-cc-pCVTZ
 There are 46 shells and 128 basis functions

 Total QAlloc Memory Limit 128000 MB
 Mega-Array Size      1467 MB
 MEM_STATIC part      1500 MB

                       Distance Matrix (Angstroms)
             C (  1)   H (  2)   H (  3)
   H (  2)  1.079000
   H (  3)  1.078964  1.868862
   H (  4)  1.078964  1.868862  1.868800
 
 Applying Cartesian multipole field
    Component          Value
    ---------          -----
     (0,0,2)       -1.00000E-04
 A cutoff of  1.0D-14 yielded   1081 shell pairs
 There are      8443 function pairs (     10725 Cartesian)
 
 -------------------------------------------------------
 OpenMP Integral Computing Module                       
 Release: version 1.0, May 2013, Q-Chem Inc. Pittsburgh 
 -------------------------------------------------------
 Integral Job Info:
 Integral job number is                      11
 Integral operator is                         1
 short-range coefficients                     0
 long-range coefficients              100000000
 Omega coefficients                           0
 if combine SR and LR in K                    0
 Integral screening is                        0
 Integral computing path is                   2
 max size of driver memory is            800000
 size of driver memory is                776718
 size of scratch memory is              6691272
 max col of scratch BK array              10000
 max len of scratch array in speh3          662
 max len of scratch index in speh4           32
 max int batch size is                      520
 min int batch size is                       52
 fixed nKL is                                52
 max L of basis functions is                  3
 order of int derivative is                   0
 number of shells is                         46
 number of basis is                         144
 number of cartesian basis is               144
 number of contracted shell pairs          1081
 number of primitive shell pairs           2360
 maxK2 (contraction) of shell pair           64
 max number of K2 of shell pair               1
 max number of CS2 of shell pair            196
 max number of PS2 of shell pair            248
 mem total for path MDJ                  541562
 -------------------------------------------------------
 Smallest overlap matrix eigenvalue = 1.00E-04
 Guess MOs from SCF MO coefficient file
 Reading MOs from coefficient file
 Reading MOs from coefficient file
 A restricted hybrid HF-DFT SCF calculation will be
 performed using Geometric Direct Minimization
 Exchange:     0.5000 Hartree-Fock + 0.5000 PTPSS-D3
 Correlation:  0.6250 PTPSS-D3
 Using Euler-Maclaurin-Lebedev (99,590) quadrature formula
 Dispersion:   Grimme D3
 SCF converges when RMS gradient is below 1.0E-08
Using Q-Chem read-in guess as SCF_GUESS READ specified.

 using 8 threads for integral computing
 -------------------------------------------------------
 OpenMP Integral computing Module                
 Release: version 2.0, May 2017, Q-Chem Inc. Pleasanton 
 -------------------------------------------------------
TIMEINFO->: J/JK contribution 6.33 sec.
 -------------------------------------------------------
 OpenMP BLAS3 based DFT computing Module                
 Release: version 1.0, May 2013, Q-Chem Inc. Pittsburgh 
 -------------------------------------------------------
 ---------------------------------------
  Cycle       Energy        RMS Gradient
 ---------------------------------------
    1     -39.7516503361      1.83E-03 Normal BFGS step
TIMEINFO->: J/JK contribution 6.30 sec.
    2     -39.7516513539      1.27E-03 Normal BFGS step
TIMEINFO->: J/JK contribution 6.31 sec.
    3     -39.7516519821      8.32E-05 Normal BFGS step
TIMEINFO->: J/JK contribution 6.33 sec.
    4     -39.7516519912      4.88E-05 Normal BFGS step
TIMEINFO->: J/JK contribution 6.26 sec.
    5     -39.7516519938      2.71E-06 Normal BFGS step
TIMEINFO->: J/JK contribution 6.33 sec.
    6     -39.7516519938      2.98E-07 Normal BFGS step
TIMEINFO->: J/JK contribution 6.29 sec.
    7     -39.7516519938      2.35E-08 Normal BFGS step
TIMEINFO->: J/JK contribution 6.26 sec.
   GDM::WARNING energy changes are now smaller than effective accuracy.
   GDM::        calculation will continue, but THRESH should be increased
   GDM::        or SCF_CONVERGENCE decreased.
   GDM::        effective_thresh =   5.000000000000000E-011
    8     -39.7516519938      2.15E-09 Convergence criterion met
 ---------------------------------------
 SCF time:  CPU 236.62 s  wall 29.78 s
 SCF   energy in the final basis set = -39.75165199
 Total energy in the final basis set = -39.75165199
 
 Components of the MP2 correlation energy:
        aaaa  correlation energy =         0.0000000000 au
        abab  correlation energy =        -0.0765245659 au
        bbbb  correlation energy =         0.0000000000 au
        non-Brillouin singles    =        -0.0020198089 au

 Total  MP2   correlation energy =                    -0.07854437 au
        MP2         total energy =                   -39.83019637 au
 
 --------------------------------------------------------------
 
                    Orbital Energies (a.u.)
 --------------------------------------------------------------
 
 Alpha MOs
 -- Occupied --
-10.604  -0.790  -0.487  -0.487  -0.292
 -- Virtual --
  0.016   0.040   0.040   0.075   0.112   0.112   0.114   0.174
  0.174   0.186   0.225   0.225   0.293   0.300   0.300   0.311
  0.329   0.346   0.363   0.363   0.379   0.379   0.397   0.397
  0.544   0.551   0.664   0.664   0.744   0.744   0.758   0.758
  0.782   0.820   0.871   0.912   0.918   0.918   0.931   0.931
  0.988   0.998   0.998   1.012   1.065   1.065   1.065   1.065
  1.221   1.338   1.338   1.470   1.496   1.496   1.503   1.497
  1.549   1.549   1.615   1.799   1.799   1.888   1.951   1.951
  1.958   2.062   2.062   2.676   2.774   2.774   2.913   3.032
  3.032   3.326   3.326   3.338   3.428   3.428   3.477   3.477
  3.482   3.519   3.698   3.741   3.741   3.753   4.047   4.047
  4.182   4.201   4.201   4.427   4.451   4.619   4.620   4.640
  4.640   4.839   4.855   5.083   5.084   5.170   5.170   5.237
  5.237   5.923   6.205   6.205   6.487   6.568  15.284  16.274
 16.274  17.225  40.985  40.985  41.208  41.233  41.233  80.497
 81.211  81.212  86.663
 
 Beta MOs
 -- Occupied --
-10.588  -0.735  -0.472  -0.472
 -- Virtual --
  0.019   0.021   0.042   0.042   0.092   0.115   0.115   0.121
  0.177   0.177   0.209   0.237   0.237   0.312   0.303   0.303
  0.312   0.340   0.357   0.372   0.372   0.384   0.384   0.403
  0.403   0.593   0.579   0.670   0.670   0.752   0.752   0.777
  0.777   0.783   0.835   0.883   0.923   0.927   0.927   0.940
  0.940   0.996   0.999   0.999   1.016   1.069   1.069   1.084
  1.084   1.235   1.348   1.348   1.474   1.505   1.505   1.505
  1.530   1.558   1.558   1.656   1.806   1.806   1.909   1.965
  1.965   1.960   2.065   2.065   2.730   2.797   2.797   2.931
  3.083   3.083   3.352   3.352   3.385   3.460   3.460   3.496
  3.496   3.506   3.552   3.728   3.755   3.755   3.756   4.060
  4.060   4.189   4.217   4.217   4.456   4.459   4.622   4.622
  4.656   4.656   4.838   4.882   5.095   5.095   5.208   5.208
  5.257   5.257   5.950   6.236   6.236   6.515   6.618  15.331
 16.290  16.290  17.247  40.997  40.997  41.224  41.232  41.232
 80.501  81.209  81.209  86.667
 --------------------------------------------------------------
 
          Ground-State Mulliken Net Atomic Charges

     Atom                 Charge (a.u.)
  ----------------------------------------
      1 C                    -1.340171
      2 H                     0.446722
      3 H                     0.446725
      4 H                     0.446725
  ----------------------------------------
  Sum of atomic charges =     0.000000

 -----------------------------------------------------------------
                    Cartesian Multipole Moments
 -----------------------------------------------------------------
    Charge (ESU x 10^10)
                 0.0000
    Dipole Moment (Debye)
         X      -0.0000      Y       0.0000      Z       0.0000
       Tot       0.0000
    Quadrupole Moments (Debye-Ang)
        XX      -7.2123     XY       0.0000     YY      -7.2124
        XZ      -0.0000     YZ      -0.0000     ZZ      -9.0934
    Octopole Moments (Debye-Ang^2)
       XXX       0.9093    XXY       0.0000    XYY      -0.9093
       YYY       0.0000    XXZ      -0.0000    XYZ      -0.0000
       YYZ       0.0000    XZZ      -0.0000    YZZ       0.0000
       ZZZ       0.0000
    Hexadecapole Moments (Debye-Ang^3)
      XXXX     -14.8499   XXXY       0.0000   XXYY      -4.9499
      XYYY       0.0000   YYYY     -14.8495   XXXZ      -0.0000
      XXYZ      -0.0000   XYYZ      -0.0000   YYYZ      -0.0000
      XXZZ      -4.8563   XYZZ      -0.0000   YYZZ      -4.8562
      XZZZ       0.0000   YZZZ      -0.0000   ZZZZ     -11.7855
 -----------------------------------------------------------------
Archival summary:
1\1\n0093.mhg0\SP\ROProcedureUnspecified\BasisUnspecified\13(2)\yhljason\SatOct313:57:452020SatOct313:57:452020\0\\#,ROProcedureUnspecified,BasisUnspecified,\\0,2\C\H,1,1.07896\H,1,1.07896,2,119.998\H,1,1.079,2,120.001,3,-180,0\\\@

 Total job time:  45.03s(wall), 357.30s(cpu) 
 Sat Oct  3 13:57:45 2020

        *************************************************************
        *                                                           *
        *  Thank you very much for using Q-Chem.  Have a nice day.  *
        *                                                           *
        *************************************************************


