Q-Chem Developer Version!
                  Welcome to Q-Chem
     A Quantum Leap Into The Future Of Chemistry


 Q-Chem 5.1, Q-Chem, Inc., Pleasanton, CA (2018)

 Yihan Shao,  Zhengting Gan,  E. Epifanovsky,  A. T. B. Gilbert,  M. Wormit,  
 J. Kussmann,  A. W. Lange,  A. Behn,  Jia Deng,  Xintian Feng,  D. Ghosh,  
 M. Goldey,  P. R. Horn,  L. D. Jacobson,  I. Kaliman,  T. Kus,  A. Landau,  
 Jie Liu,  E. I. Proynov,  R. M. Richard,  R. P. Steele,  E. J. Sundstrom,  
 H. L. Woodcock III,  P. M. Zimmerman,  D. Zuev,  B. Albrecht,  E. Alguire,  
 S. A. Baeppler,  D. Barton,  Z. Benda,  Y. A. Bernard,  E. J. Berquist,  
 K. B. Bravaya,  H. Burton,  D. Casanova,  Chun-Min Chang,  Yunqing Chen,  
 A. Chien,  K. D. Closser,  M. P. Coons,  S. Coriani,  S. Dasgupta,  
 A. L. Dempwolff,  M. Diedenhofen,  Hainam Do,  R. G. Edgar,  Po-Tung Fang,  
 S. Faraji,  S. Fatehi,  Qingguo Feng,  K. D. Fenk,  J. Fosso-Tande,  
 Qinghui Ge,  A. Ghysels,  G. Gidofalvi,  J. Gomes,  J. Gonthier,  A. Gunina,  
 D. Hait,  M. W. D. Hanson-Heine,  P. H. P. Harbach,  A. W. Hauser,  
 J. E. Herr,  E. G. Hohenstein,  Z. C. Holden,  Kerwin Hui,  B. C. Huynh,  
 T.-C. Jagau,  Hyunjun Ji,  B. Kaduk,  K. Khistyaev,  Jaehoon Kim,  
 P. Klunzinger,  K. Koh,  D. Kosenkov,  L. Koulias,  T. Kowalczyk,  
 C. M. Krauter,  A. Kunitsa,  Ka Un Lao,  A. Laurent,  K. V. Lawler,  
 Joonho Lee,  D. Lefrancois,  S. Lehtola,  D. S. Levine,  Yi-Pei Li,  
 You-Sheng Lin,  Fenglai Liu,  E. Livshits,  A. Luenser,  P. Manohar,  
 E. Mansoor,  S. F. Manzer,  Shan-Ping Mao,  Yuezhi Mao,  N. Mardirossian,  
 A. V. Marenich,  T. Markovich,  L. A. Martinez-Martinez,  S. A. Maurer,  
 N. J. Mayhall,  S. C. McKenzie,  J.-M. Mewes,  A. F. Morrison,  
 J. W. Mullinax,  K. Nanda,  T. S. Nguyen-Beck,  R. Olivares-Amaya,  
 J. A. Parkhill,  T. M. Perrine,  F. Plasser,  P. Pokhilko,  S. Prager,  
 A. Prociuk,  E. Ramos,  D. R. Rehn,  F. Rob,  M. Schneider,  N. Sergueev,  
 S. M. Sharada,  S. Sharma,  D. W. Small,  T. Stauch,  T. Stein,  
 Yu-Chuan Su,  A. J. W. Thom,  A. Tkatchenko,  T. Tsuchimochi,  N. M. Tubman,  
 L. Vogt,  M. L. Vidal,  O. Vydrov,  M. A. Watson,  J. Wenzel,  
 M. de Wergifosse,  T. A. Wesolowski,  A. White,  J. Witte,  A. Yamada,  
 Jun Yang,  K. Yao,  S. Yeganeh,  S. R. Yost,  Zhi-Qiang You,  A. Zech,  
 Igor Ying Zhang,  Xing Zhang,  Yan Zhao,  Ying Zhu,  B. R. Brooks,  
 G. K. L. Chan,  C. J. Cramer,  M. S. Gordon,  W. J. Hehre,  A. Klamt,  
 M. W. Schmidt,  C. D. Sherrill,  D. G. Truhlar,  A. Aspuru-Guzik,  R. Baer,  
 A. T. Bell,  N. A. Besley,  Jeng-Da Chai,  A. E. DePrince, III,  
 R. A. DiStasio Jr.,  A. Dreuw,  B. D. Dunietz,  T. R. Furlani,  
 Chao-Ping Hsu,  Yousung Jung,  Jing Kong,  D. S. Lambrecht,  WanZhen Liang,  
 C. Ochsenfeld,  V. A. Rassolov,  L. V. Slipchenko,  J. E. Subotnik,  
 T. Van Voorhis,  J. M. Herbert,  A. I. Krylov,  P. M. W. Gill,  M. Head-Gordon

 Contributors to earlier versions of Q-Chem not listed above: 
 R. D. Adamson,  B. Austin,  J. Baker,  G. J. O. Beran,  K. Brandhorst,  
 S. T. Brown,  E. F. C. Byrd,  A. K. Chakraborty,  C.-L. Cheng,  
 Siu Hung Chien,  D. M. Chipman,  D. L. Crittenden,  H. Dachsel,  
 R. J. Doerksen,  A. D. Dutoi,  L. Fusti-Molnar,  W. A. Goddard III,  
 A. Golubeva-Zadorozhnaya,  S. R. Gwaltney,  G. Hawkins,  A. Heyden,  
 S. Hirata,  G. Kedziora,  F. J. Keil,  C. Kelley,  Jihan Kim,  R. A. King,  
 R. Z. Khaliullin,  P. P. Korambath,  W. Kurlancheek,  A. M. Lee,  M. S. Lee,  
 S. V. Levchenko,  Ching Yeh Lin,  D. Liotard,  R. C. Lochan,  I. Lotan,  
 P. E. Maslen,  N. Nair,  D. P. O'Neill,  D. Neuhauser,  E. Neuscamman,  
 C. M. Oana,  R. Olson,  B. Peters,  R. Peverati,  P. A. Pieniazek,  
 Y. M. Rhee,  J. Ritchie,  M. A. Rohrdanz,  E. Rosta,  N. J. Russ,  
 H. F. Schaefer III,  N. E. Schultz,  N. Shenvi,  A. C. Simmonett,  A. Sodt,  
 D. Stuck,  K. S. Thanthiriwatte,  V. Vanovschi,  Tao Wang,  A. Warshel,  
 C. F. Williams,  Q. Wu,  X. Xu,  W. Zhang

 Please cite Q-Chem as follows:
 Y. Shao et al., Mol. Phys. 113, 184-215 (2015)
 DOI: 10.1080/00268976.2014.952696

 Q-Chem 5.1.1 for Intel X86 EM64T Linux

 Parts of Q-Chem use Armadillo 8.300.2 (Tropical Shenanigans).
 http://arma.sourceforge.net/

 Q-Chem begins on Sat Oct  3 13:55:53 2020  

Host: n0062.mhg0
0

     Scratch files written to /local/scratch/users/yhljason/HCCCl_PTPSS-D3_aug-cc-pcV5Z.inp20201003135100//
Input Ideriv = 0
Curr. Ideriv = -1
Max.  Ideriv = 0
Analytic post-HF gradients are not available with non-HF exchange
Input Ideriv = 0
Curr. Ideriv = 0
Max.  Ideriv = 0

Checking the input file for inconsistencies... 	...done.

--------------------------------------------------------------
User input:
--------------------------------------------------------------
$molecule
0 1
C1      0.0000  0.0000  -1.8149
C2      0.0000  0.0000  -0.6116
Cl3     0.0000  0.0000  1.0252
H4      0.0000  0.0000  -2.8699
$end

$rem
jobtype sp
method PTPSS-D3
xc_grid 000099000590
basis aug-cc-pcV5Z
max_scf_cycles 200
thresh 14
scf_convergence 8
scf_algorithm gdm
symmetry false
sym_ignore true
unrestricted false
gen_scfman true
internal_stability_iter 15
internal_stability_davidson_iter 200
mem_total 128000
cc_memory 96000
cc_backend xm
mem_static 1500
n_frozen_core 10000
$end



--------------------------------------------------------------
 Adding empirical dispersion correction 
 ----------------------------------------------------------------
 Doing -D3(0) with
 s6  =   0.75000
 s8  =   0.87900
 rs6 =   1.54100
 rs8 =   1.00000
 -D3 energy without 3body term =     -0.0003815411 hartrees
 ----------------------------------------------------------------
             Standard Nuclear Orientation (Angstroms)
    I     Atom           X                Y                Z
 ----------------------------------------------------------------
    1      C       0.0000000000     0.0000000000    -1.8149000000
    2      C       0.0000000000     0.0000000000    -0.6116000000
    3      Cl      0.0000000000     0.0000000000     1.0252000000
    4      H       0.0000000000     0.0000000000    -2.8699000000
 ----------------------------------------------------------------
 Nuclear Repulsion Energy =    74.5380374334 hartrees
 There are       15 alpha and       15 beta electrons
 Requested basis set is aug-cc-pCV5Z
 There are 149 shells and 659 basis functions

 Total QAlloc Memory Limit 128000 MB
 Mega-Array Size      1467 MB
 MEM_STATIC part      1500 MB

                       Distance Matrix (Angstroms)
             C (  1)   C (  2)   Cl(  3)
   C (  2)  1.203300
   Cl(  3)  2.840100  1.636800
   H (  4)  1.055000  2.258300  3.895100
 
 A cutoff of  1.0D-14 yielded   9906 shell pairs
 There are    198446 function pairs (    385846 Cartesian)
 
 -------------------------------------------------------
 OpenMP Integral Computing Module                       
 Release: version 1.0, May 2013, Q-Chem Inc. Pittsburgh 
 -------------------------------------------------------
 Integral Job Info:
 Integral job number is                      11
 Integral operator is                         1
 short-range coefficients                     0
 long-range coefficients              100000000
 Omega coefficients                           0
 if combine SR and LR in K                    0
 Integral screening is                        0
 Integral computing path is                   2
 max size of driver memory is           6400000
 size of driver memory is               5498286
 size of scratch memory is             29792225
 max col of scratch BK array             194481
 max len of scratch array in speh3         5572
 max len of scratch index in speh4           72
 max int batch size is                      520
 min int batch size is                       52
 fixed nKL is                                25
 max L of basis functions is                  5
 order of int derivative is                   0
 number of shells is                        149
 number of basis is                         914
 number of cartesian basis is               914
 number of contracted shell pairs          9906
 number of primitive shell pairs          18074
 maxK2 (contraction) of shell pair          121
 max number of K2 of shell pair               1
 max number of CS2 of shell pair            980
 max number of PS2 of shell pair            980
 mem total for path MDJ                 1700568
 -------------------------------------------------------
 Smallest overlap matrix eigenvalue = 3.29E-07
 Linear dependence detected in AO basis
 Number of orthogonalized atomic orbitals = 658
 Maximum deviation from orthogonality = 3.296E-10

 Scale SEOQF with 1.000000e-01/1.000000e-01/1.000000e-01

 Standard Electronic Orientation quadrupole field applied
 Nucleus-field energy     =    -0.0000000052 hartrees
 Guess from superposition of atomic densities
 Warning:  Energy on first SCF cycle will be non-variational
 SAD guess density has 30.000000 electrons

 -----------------------------------------------------------------------
  General SCF calculation program by
  Eric Jon Sundstrom, Paul Horn, Yuezhi Mao, Dmitri Zuev, Alec White,
  David Stuck, Shaama M.S., Shane Yost, Joonho Lee, David Small,
  Daniel Levine, Susi Lehtola, Hugh Burton, Evgeny Epifanovsky
 -----------------------------------------------------------------------
 Exchange:     0.5000 Hartree-Fock + 0.5000 PTPSS-D3
 Correlation:  0.6250 PTPSS-D3
 Using Euler-Maclaurin-Lebedev (99,590) quadrature formula
 Dispersion:   Grimme D3
Running Object-Oriented RKS (RHF)
 LTot/LBra/LKet=          20          10          10
 LTot/LBra/LKet=          20          10          10

 Q-Chem warning:

 in GenH1, ket side, handled with new code

 LTot/LBra/LKet=          20          10          10

 Q-Chem warning:

 in GenH1, ket side, handled with new code


 Q-Chem warning:

 in GenH1, ket side, handled with new code

 LTot/LBra/LKet=          19           9          10

 Q-Chem warning:

 in GenH1, ket side, handled with new code

 LTot/LBra/LBra=          19           9           9

 Q-Chem warning:

 in GenH1, bra side, handled with new code

We will preform up to 15 macro iterations over saddle points until a stable solution is found
Energy prior to optimization (guess energy) = -536.538750362118
Begin Timing: Total SCF Calculation
Begin Timing: SCF Single Stationary Point Calculation
begin iterations for algorithm: GDM          
the SCF tolerance is set to 1.00e-08
    1    -536.5387503621      8.00e-02     00000  Normal BFGS step
    2    -536.5270585294      1.19e-01     00000 Line search: overstep
    3    -536.5774346071      1.83e-02     00000  Normal BFGS step
    4    -536.5803048034      1.32e-02     00000  Normal BFGS step
    5    -536.5819793204      3.80e-03     00000  Normal BFGS step
    6    -536.5820924248      1.46e-03     00000  Normal BFGS step
    7    -536.5821231002      1.27e-04     00000  Normal BFGS step
    8    -536.5821233718      2.05e-05     00000  Normal BFGS step
    9    -536.5821233866      5.25e-06     00000  Normal BFGS step
   10    -536.5821233871      7.12e-07     00000  Normal BFGS step
   11    -536.5821233871      1.43e-07     00000  Normal BFGS step
   12    -536.5821233871      5.82e-08     00000  Normal BFGS step
   13    -536.5821233871      3.02e-08     00000  Normal BFGS step
   14    -536.5821233871      1.58e-08     00000  Normal BFGS step
   15    -536.5821233871      7.30e-10     00000 Convergence criterion met
Timing for Single Stationary Point: 27318.00s (wall), 217326.15s (cpu)
Begin Timing: Stability
===================================================
Beginning Test for Internal Stability
===================================================
generating davidson guess vectors based on koopmans excitations
    1      5.34e+00     00000 Davidson Iteration
    2      1.57e+00     00000 Davidson Iteration
    3      7.97e-01     00000 Davidson Iteration
    4      3.71e-01     00000 Davidson Iteration
    5      8.91e-02     00000 Davidson Iteration
    6      6.55e-02     00000 Davidson Iteration
    7      3.43e-02     00000 Davidson Iteration
    8      1.69e-02     00000 Davidson Iteration
    9      7.41e-03     00000 Davidson Iteration
   10      2.82e-03     00000 Davidson Iteration
   11      2.16e-03     00000 Davidson Iteration
   12      7.51e-03     00000 Davidson Iteration
   13      8.95e-04     00000 Davidson Iteration
   14      7.60e-04     00000 Davidson Iteration
   15      4.82e-04     00000 Davidson Iteration
   16      2.74e-04     00000 Davidson Iteration
   17      3.32e-04     00000 Davidson Iteration
   18      4.22e-04     00000 Davidson Iteration
   19      3.18e-04     00000 Davidson Iteration
   20      1.01e-04     00000 Davidson Iteration
   21      6.04e-05     00000 Davidson Converged
converged_eigenvalues
   0.8809
   0.8809
Threshold for negative eigenvalues: -1.0e-05
solution was a local minimum (stable)
===================================================
End Test for Internal Stability
===================================================
Our SCF solution is stable!
Timing for Total SCF: 79705.00s (wall), 633947.34s (cpu)
 Total energy in the final basis set =     -536.5821233871
    ==================================================
              The end of Object-Oriented SCFman       
    ==================================================

 Q-Chem fatal error occurred in module libmdc/qalloc.C, line 49:

 Illegal memory length in mega_alloc


 Please submit a crash report at q-chem.com/reporter 
 
 
 
User input: 2 of 2 
 
Q-Chem Developer Version!
                  Welcome to Q-Chem
     A Quantum Leap Into The Future Of Chemistry


 Q-Chem 5.1, Q-Chem, Inc., Pleasanton, CA (2018)

 Yihan Shao,  Zhengting Gan,  E. Epifanovsky,  A. T. B. Gilbert,  M. Wormit,  
 J. Kussmann,  A. W. Lange,  A. Behn,  Jia Deng,  Xintian Feng,  D. Ghosh,  
 M. Goldey,  P. R. Horn,  L. D. Jacobson,  I. Kaliman,  T. Kus,  A. Landau,  
 Jie Liu,  E. I. Proynov,  R. M. Richard,  R. P. Steele,  E. J. Sundstrom,  
 H. L. Woodcock III,  P. M. Zimmerman,  D. Zuev,  B. Albrecht,  E. Alguire,  
 S. A. Baeppler,  D. Barton,  Z. Benda,  Y. A. Bernard,  E. J. Berquist,  
 K. B. Bravaya,  H. Burton,  D. Casanova,  Chun-Min Chang,  Yunqing Chen,  
 A. Chien,  K. D. Closser,  M. P. Coons,  S. Coriani,  S. Dasgupta,  
 A. L. Dempwolff,  M. Diedenhofen,  Hainam Do,  R. G. Edgar,  Po-Tung Fang,  
 S. Faraji,  S. Fatehi,  Qingguo Feng,  K. D. Fenk,  J. Fosso-Tande,  
 Qinghui Ge,  A. Ghysels,  G. Gidofalvi,  J. Gomes,  J. Gonthier,  A. Gunina,  
 D. Hait,  M. W. D. Hanson-Heine,  P. H. P. Harbach,  A. W. Hauser,  
 J. E. Herr,  E. G. Hohenstein,  Z. C. Holden,  Kerwin Hui,  B. C. Huynh,  
 T.-C. Jagau,  Hyunjun Ji,  B. Kaduk,  K. Khistyaev,  Jaehoon Kim,  
 P. Klunzinger,  K. Koh,  D. Kosenkov,  L. Koulias,  T. Kowalczyk,  
 C. M. Krauter,  A. Kunitsa,  Ka Un Lao,  A. Laurent,  K. V. Lawler,  
 Joonho Lee,  D. Lefrancois,  S. Lehtola,  D. S. Levine,  Yi-Pei Li,  
 You-Sheng Lin,  Fenglai Liu,  E. Livshits,  A. Luenser,  P. Manohar,  
 E. Mansoor,  S. F. Manzer,  Shan-Ping Mao,  Yuezhi Mao,  N. Mardirossian,  
 A. V. Marenich,  T. Markovich,  L. A. Martinez-Martinez,  S. A. Maurer,  
 N. J. Mayhall,  S. C. McKenzie,  J.-M. Mewes,  A. F. Morrison,  
 J. W. Mullinax,  K. Nanda,  T. S. Nguyen-Beck,  R. Olivares-Amaya,  
 J. A. Parkhill,  T. M. Perrine,  F. Plasser,  P. Pokhilko,  S. Prager,  
 A. Prociuk,  E. Ramos,  D. R. Rehn,  F. Rob,  M. Schneider,  N. Sergueev,  
 S. M. Sharada,  S. Sharma,  D. W. Small,  T. Stauch,  T. Stein,  
 Yu-Chuan Su,  A. J. W. Thom,  A. Tkatchenko,  T. Tsuchimochi,  N. M. Tubman,  
 L. Vogt,  M. L. Vidal,  O. Vydrov,  M. A. Watson,  J. Wenzel,  
 M. de Wergifosse,  T. A. Wesolowski,  A. White,  J. Witte,  A. Yamada,  
 Jun Yang,  K. Yao,  S. Yeganeh,  S. R. Yost,  Zhi-Qiang You,  A. Zech,  
 Igor Ying Zhang,  Xing Zhang,  Yan Zhao,  Ying Zhu,  B. R. Brooks,  
 G. K. L. Chan,  C. J. Cramer,  M. S. Gordon,  W. J. Hehre,  A. Klamt,  
 M. W. Schmidt,  C. D. Sherrill,  D. G. Truhlar,  A. Aspuru-Guzik,  R. Baer,  
 A. T. Bell,  N. A. Besley,  Jeng-Da Chai,  A. E. DePrince, III,  
 R. A. DiStasio Jr.,  A. Dreuw,  B. D. Dunietz,  T. R. Furlani,  
 Chao-Ping Hsu,  Yousung Jung,  Jing Kong,  D. S. Lambrecht,  WanZhen Liang,  
 C. Ochsenfeld,  V. A. Rassolov,  L. V. Slipchenko,  J. E. Subotnik,  
 T. Van Voorhis,  J. M. Herbert,  A. I. Krylov,  P. M. W. Gill,  M. Head-Gordon

 Contributors to earlier versions of Q-Chem not listed above: 
 R. D. Adamson,  B. Austin,  J. Baker,  G. J. O. Beran,  K. Brandhorst,  
 S. T. Brown,  E. F. C. Byrd,  A. K. Chakraborty,  C.-L. Cheng,  
 Siu Hung Chien,  D. M. Chipman,  D. L. Crittenden,  H. Dachsel,  
 R. J. Doerksen,  A. D. Dutoi,  L. Fusti-Molnar,  W. A. Goddard III,  
 A. Golubeva-Zadorozhnaya,  S. R. Gwaltney,  G. Hawkins,  A. Heyden,  
 S. Hirata,  G. Kedziora,  F. J. Keil,  C. Kelley,  Jihan Kim,  R. A. King,  
 R. Z. Khaliullin,  P. P. Korambath,  W. Kurlancheek,  A. M. Lee,  M. S. Lee,  
 S. V. Levchenko,  Ching Yeh Lin,  D. Liotard,  R. C. Lochan,  I. Lotan,  
 P. E. Maslen,  N. Nair,  D. P. O'Neill,  D. Neuhauser,  E. Neuscamman,  
 C. M. Oana,  R. Olson,  B. Peters,  R. Peverati,  P. A. Pieniazek,  
 Y. M. Rhee,  J. Ritchie,  M. A. Rohrdanz,  E. Rosta,  N. J. Russ,  
 H. F. Schaefer III,  N. E. Schultz,  N. Shenvi,  A. C. Simmonett,  A. Sodt,  
 D. Stuck,  K. S. Thanthiriwatte,  V. Vanovschi,  Tao Wang,  A. Warshel,  
 C. F. Williams,  Q. Wu,  X. Xu,  W. Zhang

 Please cite Q-Chem as follows:
 Y. Shao et al., Mol. Phys. 113, 184-215 (2015)
 DOI: 10.1080/00268976.2014.952696

 Q-Chem 5.1.1 for Intel X86 EM64T Linux

 Parts of Q-Chem use Armadillo 8.300.2 (Tropical Shenanigans).
 http://arma.sourceforge.net/

 Q-Chem begins on Sun Oct  4 12:38:30 2020  

Host: n0062.mhg0
0

     Scratch files written to /local/scratch/users/yhljason/HCCCl_PTPSS-D3_aug-cc-pcV5Z.inp20201003135100//
The previous job contains 0 fragments, simply inherited here
Input Ideriv = 2
Curr. Ideriv = -1
Max.  Ideriv = 2

Checking the input file for inconsistencies... 	...done.

--------------------------------------------------------------
User input:
--------------------------------------------------------------
$molecule
read
$end

$rem

jobtype sp
method HF
xc_grid 000099000590
basis aug-cc-pcV5Z
max_scf_cycles 0
scf_guess read
thresh 14
scf_convergence 8
mem_total 128000
cc_memory 96000
cc_backend xm
mem_static 1500
symmetry false
sym_ignore true
scf_guess read
unrestricted false
scf_algorithm gdm
n_frozen_core 0
$end


--------------------------------------------------------------
 ----------------------------------------------------------------
             Standard Nuclear Orientation (Angstroms)
    I     Atom           X                Y                Z
 ----------------------------------------------------------------
    1      C       0.0000000000     0.0000000000    -1.8149000000
    2      C       0.0000000000     0.0000000000    -0.6116000000
    3      Cl      0.0000000000     0.0000000000     1.0252000000
    4      H       0.0000000000     0.0000000000    -2.8699000000
 ----------------------------------------------------------------
 Nuclear Repulsion Energy =    74.5384189744 hartrees
 There are       15 alpha and       15 beta electrons
 Requested basis set is aug-cc-pCV5Z
 There are 149 shells and 659 basis functions

 Total QAlloc Memory Limit 128000 MB
 Mega-Array Size      1467 MB
 MEM_STATIC part      1500 MB

                       Distance Matrix (Angstroms)
             C (  1)   C (  2)   Cl(  3)
   C (  2)  1.203300
   Cl(  3)  2.840100  1.636800
   H (  4)  1.055000  2.258300  3.895100
 
 A cutoff of  1.0D-14 yielded   9906 shell pairs
 There are    198446 function pairs (    385846 Cartesian)
 
 -------------------------------------------------------
 OpenMP Integral Computing Module                       
 Release: version 1.0, May 2013, Q-Chem Inc. Pittsburgh 
 -------------------------------------------------------
 Integral Job Info:
 Integral job number is                      11
 Integral operator is                         1
 short-range coefficients                     0
 long-range coefficients              100000000
 Omega coefficients                           0
 if combine SR and LR in K                    0
 Integral screening is                        0
 Integral computing path is                   2
 max size of driver memory is           6400000
 size of driver memory is               5498286
 size of scratch memory is             29792225
 max col of scratch BK array             194481
 max len of scratch array in speh3         5572
 max len of scratch index in speh4           72
 max int batch size is                      520
 min int batch size is                       52
 fixed nKL is                                25
 max L of basis functions is                  5
 order of int derivative is                   0
 number of shells is                        149
 number of basis is                         914
 number of cartesian basis is               914
 number of contracted shell pairs          9906
 number of primitive shell pairs          18074
 maxK2 (contraction) of shell pair          121
 max number of K2 of shell pair               1
 max number of CS2 of shell pair            980
 max number of PS2 of shell pair            980
 mem total for path MDJ                 1700568
 -------------------------------------------------------
 Smallest overlap matrix eigenvalue = 3.29E-07
 Linear dependence detected in AO basis
 Number of orthogonalized atomic orbitals = 658
 Maximum deviation from orthogonality = 3.043E-10

 Scale SEOQF with 1.000000e-01/1.000000e-01/1.000000e-01

 Standard Electronic Orientation quadrupole field applied
 Nucleus-field energy     =    -0.0000000052 hartrees
 Guess MOs from SCF MO coefficient file
 Reading MOs from coefficient file
 Reading MOs from coefficient file
 The restricted Hartree-Fock energy will be evaluated
 The orbitals will not be altered
Using Q-Chem read-in guess as SCF_GUESS READ specified.

 using 8 threads for integral computing
 -------------------------------------------------------
 OpenMP Integral computing Module                
 Release: version 2.0, May 2017, Q-Chem Inc. Pleasanton 
 -------------------------------------------------------
 LTot/LBra/LKet=          20          10          10
 LTot/LBra/LKet=          19           9          10
 LTot/LBra/LKet=          19           9          10

 Q-Chem warning:

 in GenH1, ket side, handled with new code

 LTot/LBra/LKet=          19           9          10

 Q-Chem warning:

 in GenH1, ket side, handled with new code


 Q-Chem warning:

 in GenH1, ket side, handled with new code


 Q-Chem warning:

 in GenH1, ket side, handled with new code

 LTot/LBra/LBra=          20          10          10

 Q-Chem warning:

 in GenH1, bra side, handled with new code

TIMEINFO->: J/JK contribution 14957.27 sec.
Avoiding writing the new MOs to disk !!! 
 ---------------------------------------
  Cycle       Energy        RMS Gradient
 ---------------------------------------
    1    -535.7787584679      1.16E-02 Convergence criterion met
 ---------------------------------------
 SCF time:  CPU 14960.36 s  wall 1871.65 s
 SCF   energy in the final basis set = -535.77875847
 Total energy in the final basis set = -535.77875847
 
 --------------------------------------------------------------
 
                    Orbital Energies (a.u.)
 --------------------------------------------------------------
 
 Alpha MOs
 -- Occupied --
******* -10.659 -10.613  -9.955  -7.578  -7.571  -7.571  -1.027
 -0.862  -0.638  -0.574  -0.464  -0.464  -0.328  -0.328
 -- Virtual --
  0.011   0.027   0.043   0.043   0.051   0.065   0.065   0.077
  0.080   0.080   0.092   0.111   0.118   0.118   0.124   0.160
  0.160   0.168   0.193   0.203   0.203   0.209   0.209   0.217
  0.217   0.230   0.257   0.257   0.262   0.303   0.319   0.319
  0.323   0.323   0.363   0.363   0.375   0.395   0.397   0.442
  0.442   0.466   0.466   0.486   0.486   0.492   0.497   0.497
  0.503   0.503   0.513   0.532   0.532   0.576   0.576   0.592
  0.596   0.596   0.624   0.627   0.627   0.654   0.654   0.668
  0.668   0.717   0.728   0.728   0.750   0.764   0.773   0.773
  0.787   0.787   0.876   0.881   0.881   0.924   0.946   0.946
  0.959   0.959   0.972   0.984   0.984   1.014   1.014   1.114
  1.132   1.132   1.145   1.145   1.185   1.234   1.234   1.238
  1.238   1.258   1.276   1.324   1.325   1.325   1.347   1.347
  1.363   1.363   1.428   1.456   1.456   1.469   1.469   1.472
  1.472   1.483   1.483   1.485   1.485   1.497   1.497   1.501
  1.516   1.516   1.552   1.552   1.588   1.588   1.674   1.674
  1.701   1.704   1.704   1.729   1.740   1.740   1.755   1.755
  1.792   1.792   1.833   1.838   1.838   1.882   1.882   1.929
  1.936   1.936   2.045   2.045   2.093   2.093   2.105   2.140
  2.151   2.151   2.237   2.305   2.305   2.338   2.384   2.387
  2.387   2.540   2.540   2.595   2.595   2.653   2.653   2.721
  2.721   2.796   2.841   2.841   2.851   2.851   2.955   2.955
  2.962   2.983   2.983   3.027   3.027   3.030   3.094   3.094
  3.106   3.106   3.128   3.128   3.166   3.166   3.218   3.218
  3.242   3.292   3.292   3.321   3.321   3.342   3.342   3.350
  3.424   3.424   3.430   3.446   3.446   3.487   3.487   3.530
  3.530   3.531   3.594   3.594   3.646   3.646   3.696   3.696
  3.710   3.710   3.725   3.733   3.733   3.759   3.759   3.767
  3.810   3.810   3.813   3.958   3.958   3.976   3.976   3.977
  3.977   3.992   4.043   4.043   4.069   4.069   4.115   4.115
  4.197   4.197   4.251   4.261   4.261   4.304   4.304   4.347
  4.347   4.402   4.402   4.413   4.469   4.469   4.485   4.485
  4.591   4.638   4.638   4.751   4.751   4.777   4.777   4.812
  4.941   4.941   4.945   4.945   4.959   5.123   5.123   5.192
  5.319   5.319   5.386   5.386   5.410   5.410   5.642   5.705
  5.705   5.774   5.774   5.775   5.775   5.788   5.788   5.909
  6.174   6.174   6.225   6.368   6.447   6.447   6.451   6.451
  6.668   6.668   6.695   6.746   6.746   6.817   6.817   6.851
  6.851   6.852   7.029   7.103   7.171   7.171   7.195   7.195
  7.246   7.246   7.315   7.315   7.319   7.319   7.445   7.514
  7.514   7.567   7.567   7.621   7.621   7.652   7.730   7.730
  7.878   7.884   7.884   8.006   8.006   8.109   8.109   8.207
  8.320   8.320   8.414   8.414   8.581   8.617   8.617   8.740
  8.740   8.745   8.748   8.748   8.830   8.830   9.014   9.014
  9.121   9.121   9.284   9.284   9.398   9.500   9.590   9.590
  9.618   9.618   9.655   9.655   9.778   9.778  10.019  10.019
 10.185  10.185  10.236  10.236  10.363  10.374  10.374  10.393
 10.393  10.480  10.480  10.498  10.498  10.567  10.567  10.574
 10.772  10.772  11.122  11.141  11.141  11.290  11.298  11.298
 11.444  11.444  11.575  11.824  11.824  11.877  11.877  12.057
 12.057  12.391  12.391  12.550  12.550  12.842  12.842  12.941
 13.076  13.076  13.089  13.233  13.233  13.375  13.467  13.467
 13.529  13.529  13.895  13.895  13.942  13.942  14.111  14.370
 14.370  14.861  14.861  15.047  15.147  15.147  15.651  16.050
 16.082  16.082  16.533  16.533  16.602  16.602  16.697  17.895
 18.090  18.090  18.335  18.340  18.340  18.487  18.487  18.625
 18.625  19.043  19.043  19.079  19.517  19.988  21.513  21.639
 21.639  21.836  22.623  22.623  23.773  25.484  25.484  25.726
 26.294  26.294  26.838  31.845  31.845  32.906  35.012  35.012
 35.580  35.580  36.435  36.435  36.940  36.940  37.636  38.685
 38.686  38.697  38.697  38.736  38.736  38.855  38.855  38.906
 39.793  45.875  46.419  46.419  46.597  46.597  46.635  46.635
 47.233  47.233  47.399  47.399  47.609  47.609  48.010  48.724
 50.262  50.507  52.502  52.502  52.594  52.594  52.701  52.701
 52.881  59.373  59.373  59.848  59.848  59.909  59.909  60.643
 60.643  60.685  61.079  62.706  83.560  83.560  84.447 101.117
101.117 101.117 101.118 101.118 101.120 101.120 101.123 101.123
101.128 101.128 106.936 106.936 107.337 107.337 107.926 107.926
108.249 108.249 108.803 110.113 117.351 122.128 122.128 122.132
122.132 122.149 122.149 122.194 122.194 122.291 129.602 129.895
136.637 136.637 137.190 137.190 137.647 141.493 141.493 141.557
141.557 141.649 141.649 141.732 165.030 165.030 165.390 165.390
166.107 167.016 167.016 167.019 167.019 167.025 167.025 167.036
167.040 167.040 167.060 167.060 167.066 167.066 167.073 167.073
167.097 167.097 167.115 167.762 187.580 187.580 187.668 187.668
187.674 187.674 187.939 187.939 187.988 187.988 188.108 188.108
188.257 188.658 224.148 224.148 224.903 307.821 307.821 308.289
308.289 308.667 318.615 328.717 328.717 328.999 328.999 329.412
329.412 329.636 329.636 330.016 330.957 337.077 337.370 465.029
465.029 465.332 465.332 465.955 467.343 721.063 721.063 721.773
*******1177.5111392.023
 --------------------------------------------------------------
 
          Ground-State Mulliken Net Atomic Charges

     Atom                 Charge (a.u.)
  ----------------------------------------
      1 C                    -0.229666
      2 C                     0.005885
      3 Cl                   -0.027184
      4 H                     0.250965
  ----------------------------------------
  Sum of atomic charges =    -0.000000

 -----------------------------------------------------------------
                    Cartesian Multipole Moments
 -----------------------------------------------------------------
    Charge (ESU x 10^10)
                 0.0000
    Dipole Moment (Debye)
         X      -0.0000      Y      -0.0000      Z      -0.4528
       Tot       0.4528
    Quadrupole Moments (Debye-Ang)
        XX     -24.9841     XY       0.0000     YY     -24.9841
        XZ       0.0000     YZ      -0.0000     ZZ     -17.8143
    Octopole Moments (Debye-Ang^2)
       XXX      -0.0000    XXY       0.0000    XYY      -0.0000
       YYY       0.0000    XXZ       3.8652    XYZ       0.0000
       YYZ       3.8652    XZZ      -0.0000    YZZ      -0.0000
       ZZZ      -8.0504
    Hexadecapole Moments (Debye-Ang^3)
      XXXX     -28.7176   XXXY       0.0000   XXYY      -9.5725
      XYYY       0.0000   YYYY     -28.7176   XXXZ       0.0000
      XXYZ      -0.0000   XYYZ       0.0000   YYYZ      -0.0000
      XXZZ     -50.2705   XYZZ      -0.0000   YYZZ     -50.2705
      XZZZ       0.0000   YZZZ      -0.0000   ZZZZ    -177.0338
 -----------------------------------------------------------------
Archival summary:
1\1\n0062.mhg0\SP\HF\BasisUnspecified\l121\yhljason\SunOct413:10:062020SunOct413:10:062020\0\\#,HF,BasisUnspecified,\\0,1\Cl\C,1,1.6368\C,2,1.2033,1,180\H,3,1.055,2,180,1,0,0\\HF=-535.778758\\@

 Total job time:  1895.85s(wall), 14996.06s(cpu) 
 Sun Oct  4 13:10:06 2020

        *************************************************************
        *                                                           *
        *  Thank you very much for using Q-Chem.  Have a nice day.  *
        *                                                           *
        *************************************************************


