Q-Chem Developer Version!
                  Welcome to Q-Chem
     A Quantum Leap Into The Future Of Chemistry


 Q-Chem 5.1, Q-Chem, Inc., Pleasanton, CA (2018)

 Yihan Shao,  Zhengting Gan,  E. Epifanovsky,  A. T. B. Gilbert,  M. Wormit,  
 J. Kussmann,  A. W. Lange,  A. Behn,  Jia Deng,  Xintian Feng,  D. Ghosh,  
 M. Goldey,  P. R. Horn,  L. D. Jacobson,  I. Kaliman,  T. Kus,  A. Landau,  
 Jie Liu,  E. I. Proynov,  R. M. Richard,  R. P. Steele,  E. J. Sundstrom,  
 H. L. Woodcock III,  P. M. Zimmerman,  D. Zuev,  B. Albrecht,  E. Alguire,  
 S. A. Baeppler,  D. Barton,  Z. Benda,  Y. A. Bernard,  E. J. Berquist,  
 K. B. Bravaya,  H. Burton,  D. Casanova,  Chun-Min Chang,  Yunqing Chen,  
 A. Chien,  K. D. Closser,  M. P. Coons,  S. Coriani,  S. Dasgupta,  
 A. L. Dempwolff,  M. Diedenhofen,  Hainam Do,  R. G. Edgar,  Po-Tung Fang,  
 S. Faraji,  S. Fatehi,  Qingguo Feng,  K. D. Fenk,  J. Fosso-Tande,  
 Qinghui Ge,  A. Ghysels,  G. Gidofalvi,  J. Gomes,  J. Gonthier,  A. Gunina,  
 D. Hait,  M. W. D. Hanson-Heine,  P. H. P. Harbach,  A. W. Hauser,  
 J. E. Herr,  E. G. Hohenstein,  Z. C. Holden,  Kerwin Hui,  B. C. Huynh,  
 T.-C. Jagau,  Hyunjun Ji,  B. Kaduk,  K. Khistyaev,  Jaehoon Kim,  
 P. Klunzinger,  K. Koh,  D. Kosenkov,  L. Koulias,  T. Kowalczyk,  
 C. M. Krauter,  A. Kunitsa,  Ka Un Lao,  A. Laurent,  K. V. Lawler,  
 Joonho Lee,  D. Lefrancois,  S. Lehtola,  D. S. Levine,  Yi-Pei Li,  
 You-Sheng Lin,  Fenglai Liu,  E. Livshits,  A. Luenser,  P. Manohar,  
 E. Mansoor,  S. F. Manzer,  Shan-Ping Mao,  Yuezhi Mao,  N. Mardirossian,  
 A. V. Marenich,  T. Markovich,  L. A. Martinez-Martinez,  S. A. Maurer,  
 N. J. Mayhall,  S. C. McKenzie,  J.-M. Mewes,  A. F. Morrison,  
 J. W. Mullinax,  K. Nanda,  T. S. Nguyen-Beck,  R. Olivares-Amaya,  
 J. A. Parkhill,  T. M. Perrine,  F. Plasser,  P. Pokhilko,  S. Prager,  
 A. Prociuk,  E. Ramos,  D. R. Rehn,  F. Rob,  M. Schneider,  N. Sergueev,  
 S. M. Sharada,  S. Sharma,  D. W. Small,  T. Stauch,  T. Stein,  
 Yu-Chuan Su,  A. J. W. Thom,  A. Tkatchenko,  T. Tsuchimochi,  N. M. Tubman,  
 L. Vogt,  M. L. Vidal,  O. Vydrov,  M. A. Watson,  J. Wenzel,  
 M. de Wergifosse,  T. A. Wesolowski,  A. White,  J. Witte,  A. Yamada,  
 Jun Yang,  K. Yao,  S. Yeganeh,  S. R. Yost,  Zhi-Qiang You,  A. Zech,  
 Igor Ying Zhang,  Xing Zhang,  Yan Zhao,  Ying Zhu,  B. R. Brooks,  
 G. K. L. Chan,  C. J. Cramer,  M. S. Gordon,  W. J. Hehre,  A. Klamt,  
 M. W. Schmidt,  C. D. Sherrill,  D. G. Truhlar,  A. Aspuru-Guzik,  R. Baer,  
 A. T. Bell,  N. A. Besley,  Jeng-Da Chai,  A. E. DePrince, III,  
 R. A. DiStasio Jr.,  A. Dreuw,  B. D. Dunietz,  T. R. Furlani,  
 Chao-Ping Hsu,  Yousung Jung,  Jing Kong,  D. S. Lambrecht,  WanZhen Liang,  
 C. Ochsenfeld,  V. A. Rassolov,  L. V. Slipchenko,  J. E. Subotnik,  
 T. Van Voorhis,  J. M. Herbert,  A. I. Krylov,  P. M. W. Gill,  M. Head-Gordon

 Contributors to earlier versions of Q-Chem not listed above: 
 R. D. Adamson,  B. Austin,  J. Baker,  G. J. O. Beran,  K. Brandhorst,  
 S. T. Brown,  E. F. C. Byrd,  A. K. Chakraborty,  C.-L. Cheng,  
 Siu Hung Chien,  D. M. Chipman,  D. L. Crittenden,  H. Dachsel,  
 R. J. Doerksen,  A. D. Dutoi,  L. Fusti-Molnar,  W. A. Goddard III,  
 A. Golubeva-Zadorozhnaya,  S. R. Gwaltney,  G. Hawkins,  A. Heyden,  
 S. Hirata,  G. Kedziora,  F. J. Keil,  C. Kelley,  Jihan Kim,  R. A. King,  
 R. Z. Khaliullin,  P. P. Korambath,  W. Kurlancheek,  A. M. Lee,  M. S. Lee,  
 S. V. Levchenko,  Ching Yeh Lin,  D. Liotard,  R. C. Lochan,  I. Lotan,  
 P. E. Maslen,  N. Nair,  D. P. O'Neill,  D. Neuhauser,  E. Neuscamman,  
 C. M. Oana,  R. Olson,  B. Peters,  R. Peverati,  P. A. Pieniazek,  
 Y. M. Rhee,  J. Ritchie,  M. A. Rohrdanz,  E. Rosta,  N. J. Russ,  
 H. F. Schaefer III,  N. E. Schultz,  N. Shenvi,  A. C. Simmonett,  A. Sodt,  
 D. Stuck,  K. S. Thanthiriwatte,  V. Vanovschi,  Tao Wang,  A. Warshel,  
 C. F. Williams,  Q. Wu,  X. Xu,  W. Zhang

 Please cite Q-Chem as follows:
 Y. Shao et al., Mol. Phys. 113, 184-215 (2015)
 DOI: 10.1080/00268976.2014.952696

 Q-Chem 5.1.1 for Intel X86 EM64T Linux

 Parts of Q-Chem use Armadillo 8.300.2 (Tropical Shenanigans).
 http://arma.sourceforge.net/

 Q-Chem begins on Sat Oct  3 13:59:35 2020  

Host: n0077.mhg0
0

     Scratch files written to /local/scratch/users/yhljason/Mg2_PTPSS-D3_aug-cc-pcVQZ.inp20201003135110//
Input Ideriv = 0
Curr. Ideriv = -1
Max.  Ideriv = 0
Analytic post-HF gradients are not available with non-HF exchange
Input Ideriv = 0
Curr. Ideriv = 0
Max.  Ideriv = 0

Checking the input file for inconsistencies... 	...done.

--------------------------------------------------------------
User input:
--------------------------------------------------------------
$molecule
0 1
Mg1	0.0000	0.0000	0.0000
Mg2	0.0000	0.0000	3.8905
$end

$rem
jobtype sp
method PTPSS-D3
xc_grid 000099000590
basis aug-cc-pcVQZ
max_scf_cycles 200
thresh 14
scf_convergence 8
scf_algorithm gdm
symmetry false
sym_ignore true
unrestricted false
gen_scfman true
internal_stability_iter 15
internal_stability_davidson_iter 200
mem_total 128000
cc_memory 96000
cc_backend xm
mem_static 1500
n_frozen_core 0
$end



--------------------------------------------------------------
 Adding empirical dispersion correction 
 ----------------------------------------------------------------
 Doing -D3(0) with
 s6  =   0.75000
 s8  =   0.87900
 rs6 =   1.54100
 rs8 =   1.00000
 -D3 energy without 3body term =     -0.0030605923 hartrees
 ----------------------------------------------------------------
             Standard Nuclear Orientation (Angstroms)
    I     Atom           X                Y                Z
 ----------------------------------------------------------------
    1      Mg      0.0000000000     0.0000000000     0.0000000000
    2      Mg      0.0000000000     0.0000000000     3.8905000000
 ----------------------------------------------------------------
 Nuclear Repulsion Energy =    19.5835011234 hartrees
 There are       12 alpha and       12 beta electrons
 Requested basis set is aug-cc-pCVQZ
 There are 68 shells and 268 basis functions

 Total QAlloc Memory Limit 128000 MB
 Mega-Array Size      1467 MB
 MEM_STATIC part      1500 MB

                       Distance Matrix (Angstroms)
             Mg(  1)
   Mg(  2)  3.890500
 
 A cutoff of  1.0D-14 yielded   2153 shell pairs
 There are     34009 function pairs (     57654 Cartesian)
 
 -------------------------------------------------------
 OpenMP Integral Computing Module                       
 Release: version 1.0, May 2013, Q-Chem Inc. Pittsburgh 
 -------------------------------------------------------
 Integral Job Info:
 Integral job number is                      11
 Integral operator is                         1
 short-range coefficients                     0
 long-range coefficients              100000000
 Omega coefficients                           0
 if combine SR and LR in K                    0
 Integral screening is                        0
 Integral computing path is                   2
 max size of driver memory is           3200000
 size of driver memory is               1704330
 size of scratch memory is             29417912
 max col of scratch BK array              50625
 max len of scratch array in speh3         2114
 max len of scratch index in speh4           50
 max int batch size is                      520
 min int batch size is                       52
 fixed nKL is                                16
 max L of basis functions is                  4
 order of int derivative is                   0
 number of shells is                         68
 number of basis is                         348
 number of cartesian basis is               348
 number of contracted shell pairs          2153
 number of primitive shell pairs          11329
 maxK2 (contraction) of shell pair          169
 max number of K2 of shell pair               1
 max number of CS2 of shell pair            186
 max number of PS2 of shell pair           2028
 mem total for path MDJ                  752464
 -------------------------------------------------------
 Smallest overlap matrix eigenvalue = 9.12E-05

 Scale SEOQF with 1.000000e-02/1.000000e-02/1.000000e-02

 Standard Electronic Orientation quadrupole field applied
 Nucleus-field energy     =    -0.0000000019 hartrees
 Guess from superposition of atomic densities
 Warning:  Energy on first SCF cycle will be non-variational
 SAD guess density has 24.000000 electrons

 -----------------------------------------------------------------------
  General SCF calculation program by
  Eric Jon Sundstrom, Paul Horn, Yuezhi Mao, Dmitri Zuev, Alec White,
  David Stuck, Shaama M.S., Shane Yost, Joonho Lee, David Small,
  Daniel Levine, Susi Lehtola, Hugh Burton, Evgeny Epifanovsky
 -----------------------------------------------------------------------
 Exchange:     0.5000 Hartree-Fock + 0.5000 PTPSS-D3
 Correlation:  0.6250 PTPSS-D3
 Using Euler-Maclaurin-Lebedev (99,590) quadrature formula
 Dispersion:   Grimme D3
Running Object-Oriented RKS (RHF)
We will preform up to 15 macro iterations over saddle points until a stable solution is found
Energy prior to optimization (guess energy) = -399.858523063446
Begin Timing: Total SCF Calculation
Begin Timing: SCF Single Stationary Point Calculation
begin iterations for algorithm: GDM          
the SCF tolerance is set to 1.00e-08
    1    -399.8585230634      8.62e-03     00000  Normal BFGS step
    2    -399.8586948168      1.68e-03     00000  Normal BFGS step
    3    -399.8587114953      1.79e-04     00000  Normal BFGS step
    4    -399.8587120675      6.22e-05     00000  Normal BFGS step
    5    -399.8587120922      1.01e-05     00000  Normal BFGS step
    6    -399.8587120940      1.06e-06     00000  Normal BFGS step
    7    -399.8587120940      3.30e-07     00000  Normal BFGS step
    8    -399.8587120940      3.69e-08     00000  Normal BFGS step
    9    -399.8587120940      3.87e-09     00000 Convergence criterion met
Timing for Single Stationary Point: 395.00s (wall), 3121.32s (cpu)
Begin Timing: Stability
===================================================
Beginning Test for Internal Stability
===================================================
generating davidson guess vectors based on koopmans excitations
    1      1.39e+00     00000 Davidson Iteration
    2      1.40e-01     00000 Davidson Iteration
    3      1.06e-01     00000 Davidson Iteration
    4      1.72e-02     00000 Davidson Iteration
    5      2.55e-03     00000 Davidson Iteration
    6      1.16e-03     00000 Davidson Iteration
    7      5.01e-04     00000 Davidson Iteration
    8      6.83e-05     00000 Davidson Iteration
    9      1.60e-03     00000 Davidson Iteration
   10      3.53e-04     00000 Davidson Iteration
   11      1.08e-04     00000 Davidson Iteration
   12      3.78e-05     00000 Davidson Converged
converged_eigenvalues
   0.4983
   0.5703
Threshold for negative eigenvalues: -1.0e-05
solution was a local minimum (stable)
===================================================
End Test for Internal Stability
===================================================
Our SCF solution is stable!
Timing for Total SCF: 1005.00s (wall), 7951.20s (cpu)
 Total energy in the final basis set =     -399.8587120940
    ==================================================
              The end of Object-Oriented SCFman       
    ==================================================
 
 Components of the MP2 correlation energy:
        aaaa  correlation energy =         0.0000000000 au
        abab  correlation energy =        -0.2394015721 au
        bbbb  correlation energy =         0.0000000000 au
        non-Brillouin singles    =        -0.0000000000 au

 Total  MP2   correlation energy =                    -0.23940157 au
        MP2         total energy =                  -400.09811367 au
 
 --------------------------------------------------------------
 
                    Orbital Energies (a.u.)
 --------------------------------------------------------------
 
 Alpha MOs
 -- Occupied --
-47.705 -47.705  -3.367  -3.367  -2.006  -2.006  -2.006  -2.006
 -2.006  -2.006  -0.244  -0.198
 -- Virtual --
 -0.022  -0.020  -0.020   0.008   0.008   0.009   0.017   0.018
  0.018   0.021   0.028   0.028   0.038   0.053   0.075   0.075
  0.086   0.087   0.087   0.102   0.102   0.105   0.105   0.106
  0.106   0.106   0.112   0.138   0.146   0.146   0.153   0.204
  0.229   0.229   0.234   0.234   0.242   0.242   0.258   0.267
  0.267   0.269   0.269   0.283   0.283   0.303   0.303   0.313
  0.320   0.322   0.322   0.327   0.327   0.332   0.332   0.334
  0.334   0.362   0.432   0.432   0.441   0.445   0.451   0.601
  0.626   0.626   0.634   0.634   0.652   0.652   0.656   0.658
  0.658   0.681   0.681   0.698   0.698   0.709   0.709   0.728
  0.728   0.734   0.734   0.738   0.738   0.739   0.739   0.760
  0.760   0.761   0.761   0.789   0.789   0.790   0.816   0.818
  0.818   0.830   0.864   0.864   0.878   0.878   0.951   0.966
  0.977   0.977   0.980   0.980   1.061   1.097   1.097   1.387
  1.496   1.496   1.508   1.508   1.511   1.511   1.549   1.569
  1.569   1.657   1.785   1.785   1.789   1.789   1.791   1.791
  1.795   1.795   1.804   1.804   1.808   1.808   1.820   1.820
  1.832   1.832   1.834   1.834   1.843   1.846   1.846   1.877
  1.877   1.899   1.907   1.907   1.909   1.909   1.942   1.958
  1.958   2.083   2.657   2.770   4.294   4.294   4.302   4.302
  4.305   4.305   4.342   4.355   4.355   4.445   4.776   4.776
  4.797   4.797   4.813   5.076   9.558   9.558   9.558   9.558
  9.561   9.561   9.562   9.562   9.568   9.568   9.579   9.591
  9.591   9.615  11.035  11.183  13.713  13.713  13.719  13.719
 13.721  13.721  13.751  13.755  13.755  13.819  22.340  22.340
 22.354  22.354  22.369  22.536  25.079  25.079  25.079  25.079
 25.079  25.079  25.079  25.079  25.079  25.079  25.080  25.080
 25.080  25.080  25.080  25.080  25.080  25.080  32.368  32.368
 32.368  32.368  32.369  32.369  32.370  32.370  32.373  32.373
 32.379  32.385  32.385  32.399  35.803  35.926  41.533  41.533
 41.537  41.537  41.538  41.538  41.560  41.562  41.562  41.606
 90.198  90.198  90.209  90.209  90.219  90.340 154.217 154.426
 --------------------------------------------------------------
 
          Ground-State Mulliken Net Atomic Charges

     Atom                 Charge (a.u.)
  ----------------------------------------
      1 Mg                   -0.000000
      2 Mg                    0.000000
  ----------------------------------------
  Sum of atomic charges =    -0.000000

 -----------------------------------------------------------------
                    Cartesian Multipole Moments
 -----------------------------------------------------------------
    Charge (ESU x 10^10)
                -0.0000
    Dipole Moment (Debye)
         X      -0.0000      Y       0.0000      Z       0.0000
       Tot       0.0000
    Quadrupole Moments (Debye-Ang)
        XX     -25.2572     XY      -0.0000     YY     -25.2572
        XZ       0.0000     YZ       0.0000     ZZ     -26.9938
    Octopole Moments (Debye-Ang^2)
       XXX       0.0000    XXY       0.0000    XYY      -0.0000
       YYY       0.0000    XXZ     -49.1316    XYZ      -0.0000
       YYZ     -49.1316    XZZ       0.0000    YZZ       0.0000
       ZZZ    -157.5289
    Hexadecapole Moments (Debye-Ang^3)
      XXXX     -73.1030   XXXY      -0.0000   XXYY     -24.3677
      XYYY      -0.0000   YYYY     -73.1030   XXXZ       0.0000
      XXYZ       0.0000   XYYZ       0.0000   YYYZ       0.0000
      XXZZ    -219.7291   XYZZ      -0.0000   YYZZ    -219.7291
      XZZZ       0.0000   YZZZ       0.0000   ZZZZ   -1299.3780
 -----------------------------------------------------------------
Archival summary:
1\1\n0077.mhg0\SP\ProcedureUnspecified\BasisUnspecified\g2\yhljason\SatOct314:24:292020SatOct314:24:292020\0\\#,ProcedureUnspecified,BasisUnspecified,\\0,1\Mg\Mg,1,3.8905\\\@

 Total job time:  1493.71s(wall), 11809.28s(cpu) 
 Sat Oct  3 14:24:29 2020

        *************************************************************
        *                                                           *
        *  Thank you very much for using Q-Chem.  Have a nice day.  *
        *                                                           *
        *************************************************************


 
User input: 2 of 83 of 8 
 
Q-Chem Developer Version!
                  Welcome to Q-Chem
     A Quantum Leap Into The Future Of Chemistry


 Q-Chem 5.1, Q-Chem, Inc., Pleasanton, CA (2018)

 Yihan Shao,  Zhengting Gan,  E. Epifanovsky,  A. T. B. Gilbert,  M. Wormit,  
 J. Kussmann,  A. W. Lange,  A. Behn,  Jia Deng,  Xintian Feng,  D. Ghosh,  
 M. Goldey,  P. R. Horn,  L. D. Jacobson,  I. Kaliman,  T. Kus,  A. Landau,  
 Jie Liu,  E. I. Proynov,  R. M. Richard,  R. P. Steele,  E. J. Sundstrom,  
 H. L. Woodcock III,  P. M. Zimmerman,  D. Zuev,  B. Albrecht,  E. Alguire,  
 S. A. Baeppler,  D. Barton,  Z. Benda,  Y. A. Bernard,  E. J. Berquist,  
 K. B. Bravaya,  H. Burton,  D. Casanova,  Chun-Min Chang,  Yunqing Chen,  
 A. Chien,  K. D. Closser,  M. P. Coons,  S. Coriani,  S. Dasgupta,  
 A. L. Dempwolff,  M. Diedenhofen,  Hainam Do,  R. G. Edgar,  Po-Tung Fang,  
 S. Faraji,  S. Fatehi,  Qingguo Feng,  K. D. Fenk,  J. Fosso-Tande,  
 Qinghui Ge,  A. Ghysels,  G. Gidofalvi,  J. Gomes,  J. Gonthier,  A. Gunina,  
 D. Hait,  M. W. D. Hanson-Heine,  P. H. P. Harbach,  A. W. Hauser,  
 J. E. Herr,  E. G. Hohenstein,  Z. C. Holden,  Kerwin Hui,  B. C. Huynh,  
 T.-C. Jagau,  Hyunjun Ji,  B. Kaduk,  K. Khistyaev,  Jaehoon Kim,  
 P. Klunzinger,  K. Koh,  D. Kosenkov,  L. Koulias,  T. Kowalczyk,  
 C. M. Krauter,  A. Kunitsa,  Ka Un Lao,  A. Laurent,  K. V. Lawler,  
 Joonho Lee,  D. Lefrancois,  S. Lehtola,  D. S. Levine,  Yi-Pei Li,  
 You-Sheng Lin,  Fenglai Liu,  E. Livshits,  A. Luenser,  P. Manohar,  
 E. Mansoor,  S. F. Manzer,  Shan-Ping Mao,  Yuezhi Mao,  N. Mardirossian,  
 A. V. Marenich,  T. Markovich,  L. A. Martinez-Martinez,  S. A. Maurer,  
 N. J. Mayhall,  S. C. McKenzie,  J.-M. Mewes,  A. F. Morrison,  
 J. W. Mullinax,  K. Nanda,  T. S. Nguyen-Beck,  R. Olivares-Amaya,  
 J. A. Parkhill,  T. M. Perrine,  F. Plasser,  P. Pokhilko,  S. Prager,  
 A. Prociuk,  E. Ramos,  D. R. Rehn,  F. Rob,  M. Schneider,  N. Sergueev,  
 S. M. Sharada,  S. Sharma,  D. W. Small,  T. Stauch,  T. Stein,  
 Yu-Chuan Su,  A. J. W. Thom,  A. Tkatchenko,  T. Tsuchimochi,  N. M. Tubman,  
 L. Vogt,  M. L. Vidal,  O. Vydrov,  M. A. Watson,  J. Wenzel,  
 M. de Wergifosse,  T. A. Wesolowski,  A. White,  J. Witte,  A. Yamada,  
 Jun Yang,  K. Yao,  S. Yeganeh,  S. R. Yost,  Zhi-Qiang You,  A. Zech,  
 Igor Ying Zhang,  Xing Zhang,  Yan Zhao,  Ying Zhu,  B. R. Brooks,  
 G. K. L. Chan,  C. J. Cramer,  M. S. Gordon,  W. J. Hehre,  A. Klamt,  
 M. W. Schmidt,  C. D. Sherrill,  D. G. Truhlar,  A. Aspuru-Guzik,  R. Baer,  
 A. T. Bell,  N. A. Besley,  Jeng-Da Chai,  A. E. DePrince, III,  
 R. A. DiStasio Jr.,  A. Dreuw,  B. D. Dunietz,  T. R. Furlani,  
 Chao-Ping Hsu,  Yousung Jung,  Jing Kong,  D. S. Lambrecht,  WanZhen Liang,  
 C. Ochsenfeld,  V. A. Rassolov,  L. V. Slipchenko,  J. E. Subotnik,  
 T. Van Voorhis,  J. M. Herbert,  A. I. Krylov,  P. M. W. Gill,  M. Head-Gordon

 Contributors to earlier versions of Q-Chem not listed above: 
 R. D. Adamson,  B. Austin,  J. Baker,  G. J. O. Beran,  K. Brandhorst,  
 S. T. Brown,  E. F. C. Byrd,  A. K. Chakraborty,  C.-L. Cheng,  
 Siu Hung Chien,  D. M. Chipman,  D. L. Crittenden,  H. Dachsel,  
 R. J. Doerksen,  A. D. Dutoi,  L. Fusti-Molnar,  W. A. Goddard III,  
 A. Golubeva-Zadorozhnaya,  S. R. Gwaltney,  G. Hawkins,  A. Heyden,  
 S. Hirata,  G. Kedziora,  F. J. Keil,  C. Kelley,  Jihan Kim,  R. A. King,  
 R. Z. Khaliullin,  P. P. Korambath,  W. Kurlancheek,  A. M. Lee,  M. S. Lee,  
 S. V. Levchenko,  Ching Yeh Lin,  D. Liotard,  R. C. Lochan,  I. Lotan,  
 P. E. Maslen,  N. Nair,  D. P. O'Neill,  D. Neuhauser,  E. Neuscamman,  
 C. M. Oana,  R. Olson,  B. Peters,  R. Peverati,  P. A. Pieniazek,  
 Y. M. Rhee,  J. Ritchie,  M. A. Rohrdanz,  E. Rosta,  N. J. Russ,  
 H. F. Schaefer III,  N. E. Schultz,  N. Shenvi,  A. C. Simmonett,  A. Sodt,  
 D. Stuck,  K. S. Thanthiriwatte,  V. Vanovschi,  Tao Wang,  A. Warshel,  
 C. F. Williams,  Q. Wu,  X. Xu,  W. Zhang

 Please cite Q-Chem as follows:
 Y. Shao et al., Mol. Phys. 113, 184-215 (2015)
 DOI: 10.1080/00268976.2014.952696

 Q-Chem 5.1.1 for Intel X86 EM64T Linux

 Parts of Q-Chem use Armadillo 8.300.2 (Tropical Shenanigans).
 http://arma.sourceforge.net/

 Q-Chem begins on Sat Oct  3 14:25:10 2020  

Host: n0077.mhg0
0

     Scratch files written to /local/scratch/users/yhljason/Mg2_PTPSS-D3_aug-cc-pcVQZ.inp20201003135110//
The previous job contains 0 fragments, simply inherited here
Input Ideriv = 0
Curr. Ideriv = -1
Max.  Ideriv = 0
Analytic post-HF gradients are not available with non-HF exchange
Input Ideriv = 0
Curr. Ideriv = 0
Max.  Ideriv = 0

Checking the input file for inconsistencies... 	...done.

--------------------------------------------------------------
User input:
--------------------------------------------------------------
$molecule
read
$end

$rem

jobtype sp
method PTPSS-D3
xc_grid 000099000590
basis aug-cc-pcVQZ
max_scf_cycles 200
thresh 14
scf_convergence 8
mem_total 128000
cc_memory 96000
cc_backend xm
mem_static 1500
symmetry false
sym_ignore true
scf_guess read
unrestricted false
scf_algorithm gdm
n_frozen_core 0
$end

$multipole_field
XX 0.0001
$end


--------------------------------------------------------------
 Adding empirical dispersion correction 
 ----------------------------------------------------------------
 Doing -D3(0) with
 s6  =   0.75000
 s8  =   0.87900
 rs6 =   1.54100
 rs8 =   1.00000
 -D3 energy without 3body term =     -0.0030605923 hartrees
 ----------------------------------------------------------------
             Standard Nuclear Orientation (Angstroms)
    I     Atom           X                Y                Z
 ----------------------------------------------------------------
    1      Mg      0.0000000000     0.0000000000     0.0000000000
    2      Mg      0.0000000000     0.0000000000     3.8905000000
 ----------------------------------------------------------------
 Nuclear Repulsion Energy =    19.5835011234 hartrees
 There are       12 alpha and       12 beta electrons
 Requested basis set is aug-cc-pCVQZ
 There are 68 shells and 268 basis functions

 Total QAlloc Memory Limit 128000 MB
 Mega-Array Size      1467 MB
 MEM_STATIC part      1500 MB

                       Distance Matrix (Angstroms)
             Mg(  1)
   Mg(  2)  3.890500
 
 Applying Cartesian multipole field
    Component          Value
    ---------          -----
     (2,0,0)        1.00000E-04
 A cutoff of  1.0D-14 yielded   2153 shell pairs
 There are     34009 function pairs (     57654 Cartesian)
 
 -------------------------------------------------------
 OpenMP Integral Computing Module                       
 Release: version 1.0, May 2013, Q-Chem Inc. Pittsburgh 
 -------------------------------------------------------
 Integral Job Info:
 Integral job number is                      11
 Integral operator is                         1
 short-range coefficients                     0
 long-range coefficients              100000000
 Omega coefficients                           0
 if combine SR and LR in K                    0
 Integral screening is                        0
 Integral computing path is                   2
 max size of driver memory is           3200000
 size of driver memory is               1704330
 size of scratch memory is             29417912
 max col of scratch BK array              50625
 max len of scratch array in speh3         2114
 max len of scratch index in speh4           50
 max int batch size is                      520
 min int batch size is                       52
 fixed nKL is                                16
 max L of basis functions is                  4
 order of int derivative is                   0
 number of shells is                         68
 number of basis is                         348
 number of cartesian basis is               348
 number of contracted shell pairs          2153
 number of primitive shell pairs          11329
 maxK2 (contraction) of shell pair          169
 max number of K2 of shell pair               1
 max number of CS2 of shell pair            186
 max number of PS2 of shell pair           2028
 mem total for path MDJ                  752464
 -------------------------------------------------------
 Smallest overlap matrix eigenvalue = 9.12E-05
 Guess MOs from SCF MO coefficient file

 -----------------------------------------------------------------------
  General SCF calculation program by
  Eric Jon Sundstrom, Paul Horn, Yuezhi Mao, Dmitri Zuev, Alec White,
  David Stuck, Shaama M.S., Shane Yost, Joonho Lee, David Small,
  Daniel Levine, Susi Lehtola, Hugh Burton, Evgeny Epifanovsky
 -----------------------------------------------------------------------
 Exchange:     0.5000 Hartree-Fock + 0.5000 PTPSS-D3
 Correlation:  0.6250 PTPSS-D3
 Using Euler-Maclaurin-Lebedev (99,590) quadrature formula
 Dispersion:   Grimme D3
 using 8 threads for integral computing
 -------------------------------------------------------
 OpenMP Integral computing Module                
 Release: version 2.0, May 2017, Q-Chem Inc. Pleasanton 
 -------------------------------------------------------
 -------------------------------------------------------
 OpenMP BLAS3 based DFT computing Module                
 Release: version 1.0, May 2013, Q-Chem Inc. Pittsburgh 
 -------------------------------------------------------
 A restricted SCF calculation will be
 performed using GDM
 SCF converges when RMS gradient is below 1.0e-08
 ---------------------------------------
  Cycle       Energy        RMS Gradient
 ---------------------------------------
    1    -399.8605899049      1.02e-03   Normal BFGS step
    2    -399.8605949919      2.75e-04   Normal BFGS step
    3    -399.8605953065      2.88e-05   Normal BFGS step
    4    -399.8605953130      7.71e-06   Normal BFGS step
    5    -399.8605953138      1.06e-06   Normal BFGS step
    6    -399.8605953138      4.10e-07   Normal BFGS step
    7    -399.8605953138      2.51e-08   Normal BFGS step
    8    -399.8605953138      6.44e-09  Convergence criterion met
 ---------------------------------------
 SCF time:   CPU 3130.47s  wall 395.00s 
 SCF   energy in the final basis set =     -399.8605953138
 Total energy in the final basis set =     -399.8605953138
 
 Components of the MP2 correlation energy:
        aaaa  correlation energy =         0.0000000000 au
        abab  correlation energy =        -0.2393766890 au
        bbbb  correlation energy =         0.0000000000 au
        non-Brillouin singles    =        -0.0000000000 au

 Total  MP2   correlation energy =                    -0.23937669 au
        MP2         total energy =                  -400.09997200 au
 
 --------------------------------------------------------------
 
                    Orbital Energies (a.u.)
 --------------------------------------------------------------
 
 Alpha MOs
 -- Occupied --
-47.705 -47.705  -3.368  -3.368  -2.007  -2.007  -2.007  -2.007
 -2.007  -2.007  -0.245  -0.198
 -- Virtual --
 -0.023  -0.023  -0.021   0.002   0.004   0.005   0.006   0.013
  0.014   0.016   0.018   0.024   0.034   0.050   0.072   0.072
  0.083   0.084   0.086   0.097   0.100   0.101   0.103   0.103
  0.104   0.105   0.109   0.135   0.142   0.144   0.151   0.202
  0.228   0.228   0.232   0.232   0.240   0.241   0.257   0.266
  0.266   0.267   0.267   0.282   0.282   0.301   0.302   0.311
  0.318   0.320   0.321   0.326   0.326   0.329   0.331   0.332
  0.333   0.361   0.430   0.431   0.440   0.443   0.450   0.600
  0.626   0.626   0.633   0.633   0.651   0.652   0.655   0.657
  0.657   0.680   0.680   0.697   0.697   0.708   0.708   0.727
  0.727   0.733   0.734   0.737   0.737   0.738   0.738   0.759
  0.759   0.760   0.760   0.788   0.788   0.789   0.815   0.817
  0.817   0.829   0.863   0.863   0.877   0.877   0.950   0.965
  0.976   0.976   0.978   0.979   1.060   1.096   1.097   1.387
  1.496   1.496   1.507   1.507   1.511   1.511   1.549   1.568
  1.568   1.657   1.784   1.784   1.788   1.788   1.791   1.791
  1.794   1.794   1.803   1.803   1.807   1.807   1.819   1.819
  1.832   1.832   1.833   1.833   1.843   1.845   1.845   1.876
  1.877   1.898   1.906   1.906   1.908   1.908   1.941   1.958
  1.958   2.082   2.656   2.769   4.293   4.293   4.301   4.301
  4.304   4.304   4.341   4.354   4.354   4.445   4.775   4.775
  4.796   4.796   4.813   5.076   9.557   9.557   9.557   9.557
  9.560   9.560   9.561   9.561   9.567   9.567   9.579   9.590
  9.590   9.614  11.034  11.182  13.713  13.713  13.719  13.719
 13.720  13.720  13.750  13.755  13.755  13.819  22.339  22.339
 22.353  22.353  22.368  22.535  25.078  25.078  25.078  25.078
 25.078  25.078  25.079  25.079  25.079  25.079  25.079  25.079
 25.079  25.079  25.079  25.079  25.079  25.080  32.367  32.367
 32.367  32.367  32.369  32.369  32.369  32.369  32.373  32.373
 32.378  32.385  32.385  32.399  35.802  35.925  41.532  41.532
 41.537  41.537  41.537  41.537  41.559  41.562  41.562  41.606
 90.198  90.198  90.208  90.208  90.219  90.339 154.217 154.425
 --------------------------------------------------------------
 
          Ground-State Mulliken Net Atomic Charges

     Atom                 Charge (a.u.)
  ----------------------------------------
      1 Mg                   -0.000000
      2 Mg                    0.000000
  ----------------------------------------
  Sum of atomic charges =    -0.000000

 -----------------------------------------------------------------
                    Cartesian Multipole Moments
 -----------------------------------------------------------------
    Charge (ESU x 10^10)
                -0.0000
    Dipole Moment (Debye)
         X      -0.0000      Y      -0.0000      Z      -0.0000
       Tot       0.0000
    Quadrupole Moments (Debye-Ang)
        XX     -25.4035     XY      -0.0000     YY     -25.2586
        XZ      -0.0000     YZ      -0.0000     ZZ     -26.9901
    Octopole Moments (Debye-Ang^2)
       XXX      -0.0000    XXY      -0.0000    XYY      -0.0000
       YYY       0.0000    XXZ     -49.4162    XYZ      -0.0000
       YYZ     -49.1343    XZZ      -0.0000    YZZ      -0.0000
       ZZZ    -157.5076
    Hexadecapole Moments (Debye-Ang^3)
      XXXX     -74.4333   XXXY      -0.0000   XXYY     -24.6010
      XYYY      -0.0000   YYYY     -73.1765   XXXZ      -0.0000
      XXYZ      -0.0000   XYYZ      -0.0000   YYYZ       0.0000
      XXZZ    -221.1462   XYZZ      -0.0000   YYZZ    -219.7705
      XZZZ      -0.0000   YZZZ      -0.0000   ZZZZ   -1299.3810
 -----------------------------------------------------------------
Archival summary:
1\1\n0077.mhg0\SP\ProcedureUnspecified\BasisUnspecified\g2\yhljason\SatOct314:38:582020SatOct314:38:582020\0\\#,ProcedureUnspecified,BasisUnspecified,\\0,1\Mg\Mg,1,3.8905\\\@

 Total job time:  827.53s(wall), 6538.37s(cpu) 
 Sat Oct  3 14:38:58 2020

        *************************************************************
        *                                                           *
        *  Thank you very much for using Q-Chem.  Have a nice day.  *
        *                                                           *
        *************************************************************


 
User input: 4 of 8 
 
Q-Chem Developer Version!
                  Welcome to Q-Chem
     A Quantum Leap Into The Future Of Chemistry


 Q-Chem 5.1, Q-Chem, Inc., Pleasanton, CA (2018)

 Yihan Shao,  Zhengting Gan,  E. Epifanovsky,  A. T. B. Gilbert,  M. Wormit,  
 J. Kussmann,  A. W. Lange,  A. Behn,  Jia Deng,  Xintian Feng,  D. Ghosh,  
 M. Goldey,  P. R. Horn,  L. D. Jacobson,  I. Kaliman,  T. Kus,  A. Landau,  
 Jie Liu,  E. I. Proynov,  R. M. Richard,  R. P. Steele,  E. J. Sundstrom,  
 H. L. Woodcock III,  P. M. Zimmerman,  D. Zuev,  B. Albrecht,  E. Alguire,  
 S. A. Baeppler,  D. Barton,  Z. Benda,  Y. A. Bernard,  E. J. Berquist,  
 K. B. Bravaya,  H. Burton,  D. Casanova,  Chun-Min Chang,  Yunqing Chen,  
 A. Chien,  K. D. Closser,  M. P. Coons,  S. Coriani,  S. Dasgupta,  
 A. L. Dempwolff,  M. Diedenhofen,  Hainam Do,  R. G. Edgar,  Po-Tung Fang,  
 S. Faraji,  S. Fatehi,  Qingguo Feng,  K. D. Fenk,  J. Fosso-Tande,  
 Qinghui Ge,  A. Ghysels,  G. Gidofalvi,  J. Gomes,  J. Gonthier,  A. Gunina,  
 D. Hait,  M. W. D. Hanson-Heine,  P. H. P. Harbach,  A. W. Hauser,  
 J. E. Herr,  E. G. Hohenstein,  Z. C. Holden,  Kerwin Hui,  B. C. Huynh,  
 T.-C. Jagau,  Hyunjun Ji,  B. Kaduk,  K. Khistyaev,  Jaehoon Kim,  
 P. Klunzinger,  K. Koh,  D. Kosenkov,  L. Koulias,  T. Kowalczyk,  
 C. M. Krauter,  A. Kunitsa,  Ka Un Lao,  A. Laurent,  K. V. Lawler,  
 Joonho Lee,  D. Lefrancois,  S. Lehtola,  D. S. Levine,  Yi-Pei Li,  
 You-Sheng Lin,  Fenglai Liu,  E. Livshits,  A. Luenser,  P. Manohar,  
 E. Mansoor,  S. F. Manzer,  Shan-Ping Mao,  Yuezhi Mao,  N. Mardirossian,  
 A. V. Marenich,  T. Markovich,  L. A. Martinez-Martinez,  S. A. Maurer,  
 N. J. Mayhall,  S. C. McKenzie,  J.-M. Mewes,  A. F. Morrison,  
 J. W. Mullinax,  K. Nanda,  T. S. Nguyen-Beck,  R. Olivares-Amaya,  
 J. A. Parkhill,  T. M. Perrine,  F. Plasser,  P. Pokhilko,  S. Prager,  
 A. Prociuk,  E. Ramos,  D. R. Rehn,  F. Rob,  M. Schneider,  N. Sergueev,  
 S. M. Sharada,  S. Sharma,  D. W. Small,  T. Stauch,  T. Stein,  
 Yu-Chuan Su,  A. J. W. Thom,  A. Tkatchenko,  T. Tsuchimochi,  N. M. Tubman,  
 L. Vogt,  M. L. Vidal,  O. Vydrov,  M. A. Watson,  J. Wenzel,  
 M. de Wergifosse,  T. A. Wesolowski,  A. White,  J. Witte,  A. Yamada,  
 Jun Yang,  K. Yao,  S. Yeganeh,  S. R. Yost,  Zhi-Qiang You,  A. Zech,  
 Igor Ying Zhang,  Xing Zhang,  Yan Zhao,  Ying Zhu,  B. R. Brooks,  
 G. K. L. Chan,  C. J. Cramer,  M. S. Gordon,  W. J. Hehre,  A. Klamt,  
 M. W. Schmidt,  C. D. Sherrill,  D. G. Truhlar,  A. Aspuru-Guzik,  R. Baer,  
 A. T. Bell,  N. A. Besley,  Jeng-Da Chai,  A. E. DePrince, III,  
 R. A. DiStasio Jr.,  A. Dreuw,  B. D. Dunietz,  T. R. Furlani,  
 Chao-Ping Hsu,  Yousung Jung,  Jing Kong,  D. S. Lambrecht,  WanZhen Liang,  
 C. Ochsenfeld,  V. A. Rassolov,  L. V. Slipchenko,  J. E. Subotnik,  
 T. Van Voorhis,  J. M. Herbert,  A. I. Krylov,  P. M. W. Gill,  M. Head-Gordon

 Contributors to earlier versions of Q-Chem not listed above: 
 R. D. Adamson,  B. Austin,  J. Baker,  G. J. O. Beran,  K. Brandhorst,  
 S. T. Brown,  E. F. C. Byrd,  A. K. Chakraborty,  C.-L. Cheng,  
 Siu Hung Chien,  D. M. Chipman,  D. L. Crittenden,  H. Dachsel,  
 R. J. Doerksen,  A. D. Dutoi,  L. Fusti-Molnar,  W. A. Goddard III,  
 A. Golubeva-Zadorozhnaya,  S. R. Gwaltney,  G. Hawkins,  A. Heyden,  
 S. Hirata,  G. Kedziora,  F. J. Keil,  C. Kelley,  Jihan Kim,  R. A. King,  
 R. Z. Khaliullin,  P. P. Korambath,  W. Kurlancheek,  A. M. Lee,  M. S. Lee,  
 S. V. Levchenko,  Ching Yeh Lin,  D. Liotard,  R. C. Lochan,  I. Lotan,  
 P. E. Maslen,  N. Nair,  D. P. O'Neill,  D. Neuhauser,  E. Neuscamman,  
 C. M. Oana,  R. Olson,  B. Peters,  R. Peverati,  P. A. Pieniazek,  
 Y. M. Rhee,  J. Ritchie,  M. A. Rohrdanz,  E. Rosta,  N. J. Russ,  
 H. F. Schaefer III,  N. E. Schultz,  N. Shenvi,  A. C. Simmonett,  A. Sodt,  
 D. Stuck,  K. S. Thanthiriwatte,  V. Vanovschi,  Tao Wang,  A. Warshel,  
 C. F. Williams,  Q. Wu,  X. Xu,  W. Zhang

 Please cite Q-Chem as follows:
 Y. Shao et al., Mol. Phys. 113, 184-215 (2015)
 DOI: 10.1080/00268976.2014.952696

 Q-Chem 5.1.1 for Intel X86 EM64T Linux

 Parts of Q-Chem use Armadillo 8.300.2 (Tropical Shenanigans).
 http://arma.sourceforge.net/

 Q-Chem begins on Sat Oct  3 14:38:58 2020  

Host: n0077.mhg0
0

     Scratch files written to /local/scratch/users/yhljason/Mg2_PTPSS-D3_aug-cc-pcVQZ.inp20201003135110//
The previous job contains 0 fragments, simply inherited here
Input Ideriv = 0
Curr. Ideriv = -1
Max.  Ideriv = 0
Analytic post-HF gradients are not available with non-HF exchange
Input Ideriv = 0
Curr. Ideriv = 0
Max.  Ideriv = 0

Checking the input file for inconsistencies... 	...done.

--------------------------------------------------------------
User input:
--------------------------------------------------------------
$molecule
read
$end

$rem

jobtype sp
method PTPSS-D3
xc_grid 000099000590
basis aug-cc-pcVQZ
max_scf_cycles 200
thresh 14
scf_convergence 8
mem_total 128000
cc_memory 96000
cc_backend xm
mem_static 1500
symmetry false
sym_ignore true
scf_guess read
unrestricted false
scf_algorithm gdm
n_frozen_core 0
$end

$multipole_field
XX -0.0001
$end


--------------------------------------------------------------
 Adding empirical dispersion correction 
 ----------------------------------------------------------------
 Doing -D3(0) with
 s6  =   0.75000
 s8  =   0.87900
 rs6 =   1.54100
 rs8 =   1.00000
 -D3 energy without 3body term =     -0.0030605923 hartrees
 ----------------------------------------------------------------
             Standard Nuclear Orientation (Angstroms)
    I     Atom           X                Y                Z
 ----------------------------------------------------------------
    1      Mg      0.0000000000     0.0000000000     0.0000000000
    2      Mg      0.0000000000     0.0000000000     3.8905000000
 ----------------------------------------------------------------
 Nuclear Repulsion Energy =    19.5835011234 hartrees
 There are       12 alpha and       12 beta electrons
 Requested basis set is aug-cc-pCVQZ
 There are 68 shells and 268 basis functions

 Total QAlloc Memory Limit 128000 MB
 Mega-Array Size      1467 MB
 MEM_STATIC part      1500 MB

                       Distance Matrix (Angstroms)
             Mg(  1)
   Mg(  2)  3.890500
 
 Applying Cartesian multipole field
    Component          Value
    ---------          -----
     (2,0,0)       -1.00000E-04
 A cutoff of  1.0D-14 yielded   2153 shell pairs
 There are     34009 function pairs (     57654 Cartesian)
 
 -------------------------------------------------------
 OpenMP Integral Computing Module                       
 Release: version 1.0, May 2013, Q-Chem Inc. Pittsburgh 
 -------------------------------------------------------
 Integral Job Info:
 Integral job number is                      11
 Integral operator is                         1
 short-range coefficients                     0
 long-range coefficients              100000000
 Omega coefficients                           0
 if combine SR and LR in K                    0
 Integral screening is                        0
 Integral computing path is                   2
 max size of driver memory is           3200000
 size of driver memory is               1704330
 size of scratch memory is             29417912
 max col of scratch BK array              50625
 max len of scratch array in speh3         2114
 max len of scratch index in speh4           50
 max int batch size is                      520
 min int batch size is                       52
 fixed nKL is                                16
 max L of basis functions is                  4
 order of int derivative is                   0
 number of shells is                         68
 number of basis is                         348
 number of cartesian basis is               348
 number of contracted shell pairs          2153
 number of primitive shell pairs          11329
 maxK2 (contraction) of shell pair          169
 max number of K2 of shell pair               1
 max number of CS2 of shell pair            186
 max number of PS2 of shell pair           2028
 mem total for path MDJ                  752464
 -------------------------------------------------------
 Smallest overlap matrix eigenvalue = 9.12E-05
 Guess MOs from SCF MO coefficient file

 -----------------------------------------------------------------------
  General SCF calculation program by
  Eric Jon Sundstrom, Paul Horn, Yuezhi Mao, Dmitri Zuev, Alec White,
  David Stuck, Shaama M.S., Shane Yost, Joonho Lee, David Small,
  Daniel Levine, Susi Lehtola, Hugh Burton, Evgeny Epifanovsky
 -----------------------------------------------------------------------
 Exchange:     0.5000 Hartree-Fock + 0.5000 PTPSS-D3
 Correlation:  0.6250 PTPSS-D3
 Using Euler-Maclaurin-Lebedev (99,590) quadrature formula
 Dispersion:   Grimme D3
 using 8 threads for integral computing
 -------------------------------------------------------
 OpenMP Integral computing Module                
 Release: version 2.0, May 2017, Q-Chem Inc. Pleasanton 
 -------------------------------------------------------
 -------------------------------------------------------
 OpenMP BLAS3 based DFT computing Module                
 Release: version 1.0, May 2013, Q-Chem Inc. Pittsburgh 
 -------------------------------------------------------
 A restricted SCF calculation will be
 performed using GDM
 SCF converges when RMS gradient is below 1.0e-08
 ---------------------------------------
  Cycle       Energy        RMS Gradient
 ---------------------------------------
    1    -399.8568179313      1.95e-03   Normal BFGS step
    2    -399.8568383213      5.01e-04   Normal BFGS step
    3    -399.8568395425      5.89e-05   Normal BFGS step
    4    -399.8568395682      1.53e-05   Normal BFGS step
    5    -399.8568395715      2.20e-06   Normal BFGS step
    6    -399.8568395715      8.22e-07   Normal BFGS step
    7    -399.8568395715      4.91e-08   Normal BFGS step
    8    -399.8568395715      1.18e-08   Normal BFGS step
    9    -399.8568395715      2.55e-09  Convergence criterion met
 ---------------------------------------
 SCF time:   CPU 3419.79s  wall 433.00s 
 SCF   energy in the final basis set =     -399.8568395715
 Total energy in the final basis set =     -399.8568395715
 
 Components of the MP2 correlation energy:
        aaaa  correlation energy =         0.0000000000 au
        abab  correlation energy =        -0.2394260324 au
        bbbb  correlation energy =         0.0000000000 au
        non-Brillouin singles    =        -0.0000000000 au

 Total  MP2   correlation energy =                    -0.23942603 au
        MP2         total energy =                  -400.09626560 au
 
 --------------------------------------------------------------
 
                    Orbital Energies (a.u.)
 --------------------------------------------------------------
 
 Alpha MOs
 -- Occupied --
-47.704 -47.704  -3.367  -3.367  -2.006  -2.006  -2.006  -2.006
 -2.006  -2.006  -0.244  -0.197
 -- Virtual --
 -0.022  -0.019  -0.017   0.009   0.011   0.013   0.020   0.023
  0.026   0.031   0.032   0.038   0.042   0.057   0.077   0.077
  0.089   0.089   0.091   0.103   0.107   0.107   0.107   0.108
  0.109   0.112   0.115   0.140   0.147   0.149   0.155   0.206
  0.231   0.231   0.235   0.235   0.243   0.243   0.259   0.269
  0.269   0.270   0.270   0.285   0.285   0.304   0.305   0.314
  0.322   0.323   0.325   0.329   0.329   0.333   0.335   0.335
  0.336   0.363   0.432   0.433   0.443   0.446   0.452   0.602
  0.627   0.627   0.634   0.634   0.653   0.653   0.657   0.659
  0.659   0.682   0.682   0.699   0.699   0.710   0.710   0.728
  0.729   0.735   0.735   0.739   0.739   0.740   0.740   0.761
  0.761   0.762   0.762   0.790   0.790   0.791   0.816   0.819
  0.819   0.831   0.864   0.865   0.879   0.879   0.951   0.966
  0.978   0.978   0.980   0.981   1.061   1.098   1.098   1.388
  1.497   1.497   1.508   1.509   1.512   1.512   1.550   1.569
  1.569   1.658   1.786   1.786   1.789   1.789   1.792   1.792
  1.795   1.795   1.805   1.805   1.809   1.809   1.820   1.820
  1.833   1.833   1.835   1.835   1.844   1.846   1.846   1.878
  1.878   1.900   1.907   1.907   1.909   1.909   1.943   1.959
  1.959   2.083   2.658   2.770   4.294   4.294   4.302   4.302
  4.305   4.305   4.343   4.356   4.356   4.446   4.776   4.776
  4.797   4.797   4.814   5.077   9.558   9.558   9.559   9.559
  9.562   9.562   9.562   9.562   9.569   9.569   9.580   9.591
  9.591   9.615  11.036  11.183  13.714  13.714  13.720  13.720
 13.721  13.721  13.751  13.756  13.756  13.820  22.341  22.341
 22.355  22.355  22.369  22.536  25.079  25.079  25.079  25.079
 25.079  25.079  25.080  25.080  25.080  25.080  25.080  25.080
 25.080  25.081  25.081  25.081  25.081  25.081  32.368  32.368
 32.368  32.368  32.370  32.370  32.370  32.370  32.374  32.374
 32.379  32.386  32.386  32.400  35.803  35.926  41.533  41.533
 41.538  41.538  41.539  41.539  41.560  41.563  41.563  41.607
 90.199  90.199  90.209  90.209  90.220  90.340 154.218 154.426
 --------------------------------------------------------------
 
          Ground-State Mulliken Net Atomic Charges

     Atom                 Charge (a.u.)
  ----------------------------------------
      1 Mg                   -0.000000
      2 Mg                    0.000000
  ----------------------------------------
  Sum of atomic charges =    -0.000000

 -----------------------------------------------------------------
                    Cartesian Multipole Moments
 -----------------------------------------------------------------
    Charge (ESU x 10^10)
                -0.0000
    Dipole Moment (Debye)
         X       0.0000      Y      -0.0000      Z      -0.0000
       Tot       0.0000
    Quadrupole Moments (Debye-Ang)
        XX     -25.1157     XY       0.0000     YY     -25.2562
        XZ      -0.0000     YZ      -0.0000     ZZ     -26.9978
    Octopole Moments (Debye-Ang^2)
       XXX       0.0000    XXY      -0.0000    XYY       0.0000
       YYY       0.0000    XXZ     -48.8564    XYZ       0.0000
       YYZ     -49.1297    XZZ       0.0000    YZZ      -0.0000
       ZZZ    -157.5526
    Hexadecapole Moments (Debye-Ang^3)
      XXXX     -71.8399   XXXY       0.0000   XXYY     -24.1457
      XYYY       0.0000   YYYY     -73.0382   XXXZ       0.0000
      XXYZ      -0.0000   XYYZ       0.0000   YYYZ      -0.0000
      XXZZ    -218.3635   XYZZ       0.0000   YYZZ    -219.6943
      XZZZ       0.0000   YZZZ      -0.0000   ZZZZ   -1299.4014
 -----------------------------------------------------------------
Archival summary:
1\1\n0077.mhg0\SP\ProcedureUnspecified\BasisUnspecified\g2\yhljason\SatOct314:53:242020SatOct314:53:242020\0\\#,ProcedureUnspecified,BasisUnspecified,\\0,1\Mg\Mg,1,3.8905\\\@

 Total job time:  866.45s(wall), 6845.06s(cpu) 
 Sat Oct  3 14:53:24 2020

        *************************************************************
        *                                                           *
        *  Thank you very much for using Q-Chem.  Have a nice day.  *
        *                                                           *
        *************************************************************


 
User input: 5 of 8 
 
Q-Chem Developer Version!
                  Welcome to Q-Chem
     A Quantum Leap Into The Future Of Chemistry


 Q-Chem 5.1, Q-Chem, Inc., Pleasanton, CA (2018)

 Yihan Shao,  Zhengting Gan,  E. Epifanovsky,  A. T. B. Gilbert,  M. Wormit,  
 J. Kussmann,  A. W. Lange,  A. Behn,  Jia Deng,  Xintian Feng,  D. Ghosh,  
 M. Goldey,  P. R. Horn,  L. D. Jacobson,  I. Kaliman,  T. Kus,  A. Landau,  
 Jie Liu,  E. I. Proynov,  R. M. Richard,  R. P. Steele,  E. J. Sundstrom,  
 H. L. Woodcock III,  P. M. Zimmerman,  D. Zuev,  B. Albrecht,  E. Alguire,  
 S. A. Baeppler,  D. Barton,  Z. Benda,  Y. A. Bernard,  E. J. Berquist,  
 K. B. Bravaya,  H. Burton,  D. Casanova,  Chun-Min Chang,  Yunqing Chen,  
 A. Chien,  K. D. Closser,  M. P. Coons,  S. Coriani,  S. Dasgupta,  
 A. L. Dempwolff,  M. Diedenhofen,  Hainam Do,  R. G. Edgar,  Po-Tung Fang,  
 S. Faraji,  S. Fatehi,  Qingguo Feng,  K. D. Fenk,  J. Fosso-Tande,  
 Qinghui Ge,  A. Ghysels,  G. Gidofalvi,  J. Gomes,  J. Gonthier,  A. Gunina,  
 D. Hait,  M. W. D. Hanson-Heine,  P. H. P. Harbach,  A. W. Hauser,  
 J. E. Herr,  E. G. Hohenstein,  Z. C. Holden,  Kerwin Hui,  B. C. Huynh,  
 T.-C. Jagau,  Hyunjun Ji,  B. Kaduk,  K. Khistyaev,  Jaehoon Kim,  
 P. Klunzinger,  K. Koh,  D. Kosenkov,  L. Koulias,  T. Kowalczyk,  
 C. M. Krauter,  A. Kunitsa,  Ka Un Lao,  A. Laurent,  K. V. Lawler,  
 Joonho Lee,  D. Lefrancois,  S. Lehtola,  D. S. Levine,  Yi-Pei Li,  
 You-Sheng Lin,  Fenglai Liu,  E. Livshits,  A. Luenser,  P. Manohar,  
 E. Mansoor,  S. F. Manzer,  Shan-Ping Mao,  Yuezhi Mao,  N. Mardirossian,  
 A. V. Marenich,  T. Markovich,  L. A. Martinez-Martinez,  S. A. Maurer,  
 N. J. Mayhall,  S. C. McKenzie,  J.-M. Mewes,  A. F. Morrison,  
 J. W. Mullinax,  K. Nanda,  T. S. Nguyen-Beck,  R. Olivares-Amaya,  
 J. A. Parkhill,  T. M. Perrine,  F. Plasser,  P. Pokhilko,  S. Prager,  
 A. Prociuk,  E. Ramos,  D. R. Rehn,  F. Rob,  M. Schneider,  N. Sergueev,  
 S. M. Sharada,  S. Sharma,  D. W. Small,  T. Stauch,  T. Stein,  
 Yu-Chuan Su,  A. J. W. Thom,  A. Tkatchenko,  T. Tsuchimochi,  N. M. Tubman,  
 L. Vogt,  M. L. Vidal,  O. Vydrov,  M. A. Watson,  J. Wenzel,  
 M. de Wergifosse,  T. A. Wesolowski,  A. White,  J. Witte,  A. Yamada,  
 Jun Yang,  K. Yao,  S. Yeganeh,  S. R. Yost,  Zhi-Qiang You,  A. Zech,  
 Igor Ying Zhang,  Xing Zhang,  Yan Zhao,  Ying Zhu,  B. R. Brooks,  
 G. K. L. Chan,  C. J. Cramer,  M. S. Gordon,  W. J. Hehre,  A. Klamt,  
 M. W. Schmidt,  C. D. Sherrill,  D. G. Truhlar,  A. Aspuru-Guzik,  R. Baer,  
 A. T. Bell,  N. A. Besley,  Jeng-Da Chai,  A. E. DePrince, III,  
 R. A. DiStasio Jr.,  A. Dreuw,  B. D. Dunietz,  T. R. Furlani,  
 Chao-Ping Hsu,  Yousung Jung,  Jing Kong,  D. S. Lambrecht,  WanZhen Liang,  
 C. Ochsenfeld,  V. A. Rassolov,  L. V. Slipchenko,  J. E. Subotnik,  
 T. Van Voorhis,  J. M. Herbert,  A. I. Krylov,  P. M. W. Gill,  M. Head-Gordon

 Contributors to earlier versions of Q-Chem not listed above: 
 R. D. Adamson,  B. Austin,  J. Baker,  G. J. O. Beran,  K. Brandhorst,  
 S. T. Brown,  E. F. C. Byrd,  A. K. Chakraborty,  C.-L. Cheng,  
 Siu Hung Chien,  D. M. Chipman,  D. L. Crittenden,  H. Dachsel,  
 R. J. Doerksen,  A. D. Dutoi,  L. Fusti-Molnar,  W. A. Goddard III,  
 A. Golubeva-Zadorozhnaya,  S. R. Gwaltney,  G. Hawkins,  A. Heyden,  
 S. Hirata,  G. Kedziora,  F. J. Keil,  C. Kelley,  Jihan Kim,  R. A. King,  
 R. Z. Khaliullin,  P. P. Korambath,  W. Kurlancheek,  A. M. Lee,  M. S. Lee,  
 S. V. Levchenko,  Ching Yeh Lin,  D. Liotard,  R. C. Lochan,  I. Lotan,  
 P. E. Maslen,  N. Nair,  D. P. O'Neill,  D. Neuhauser,  E. Neuscamman,  
 C. M. Oana,  R. Olson,  B. Peters,  R. Peverati,  P. A. Pieniazek,  
 Y. M. Rhee,  J. Ritchie,  M. A. Rohrdanz,  E. Rosta,  N. J. Russ,  
 H. F. Schaefer III,  N. E. Schultz,  N. Shenvi,  A. C. Simmonett,  A. Sodt,  
 D. Stuck,  K. S. Thanthiriwatte,  V. Vanovschi,  Tao Wang,  A. Warshel,  
 C. F. Williams,  Q. Wu,  X. Xu,  W. Zhang

 Please cite Q-Chem as follows:
 Y. Shao et al., Mol. Phys. 113, 184-215 (2015)
 DOI: 10.1080/00268976.2014.952696

 Q-Chem 5.1.1 for Intel X86 EM64T Linux

 Parts of Q-Chem use Armadillo 8.300.2 (Tropical Shenanigans).
 http://arma.sourceforge.net/

 Q-Chem begins on Sat Oct  3 14:53:25 2020  

Host: n0077.mhg0
0

     Scratch files written to /local/scratch/users/yhljason/Mg2_PTPSS-D3_aug-cc-pcVQZ.inp20201003135110//
The previous job contains 0 fragments, simply inherited here
Input Ideriv = 0
Curr. Ideriv = -1
Max.  Ideriv = 0
Analytic post-HF gradients are not available with non-HF exchange
Input Ideriv = 0
Curr. Ideriv = 0
Max.  Ideriv = 0

Checking the input file for inconsistencies... 	...done.

--------------------------------------------------------------
User input:
--------------------------------------------------------------
$molecule
read
$end

$rem

jobtype sp
method PTPSS-D3
xc_grid 000099000590
basis aug-cc-pcVQZ
max_scf_cycles 200
thresh 14
scf_convergence 8
mem_total 128000
cc_memory 96000
cc_backend xm
mem_static 1500
symmetry false
sym_ignore true
scf_guess read
unrestricted false
scf_algorithm gdm
n_frozen_core 0
$end

$multipole_field
YY 0.0001
$end


--------------------------------------------------------------
 Adding empirical dispersion correction 
 ----------------------------------------------------------------
 Doing -D3(0) with
 s6  =   0.75000
 s8  =   0.87900
 rs6 =   1.54100
 rs8 =   1.00000
 -D3 energy without 3body term =     -0.0030605923 hartrees
 ----------------------------------------------------------------
             Standard Nuclear Orientation (Angstroms)
    I     Atom           X                Y                Z
 ----------------------------------------------------------------
    1      Mg      0.0000000000     0.0000000000     0.0000000000
    2      Mg      0.0000000000     0.0000000000     3.8905000000
 ----------------------------------------------------------------
 Nuclear Repulsion Energy =    19.5835011234 hartrees
 There are       12 alpha and       12 beta electrons
 Requested basis set is aug-cc-pCVQZ
 There are 68 shells and 268 basis functions

 Total QAlloc Memory Limit 128000 MB
 Mega-Array Size      1467 MB
 MEM_STATIC part      1500 MB

                       Distance Matrix (Angstroms)
             Mg(  1)
   Mg(  2)  3.890500
 
 Applying Cartesian multipole field
    Component          Value
    ---------          -----
     (0,2,0)        1.00000E-04
 A cutoff of  1.0D-14 yielded   2153 shell pairs
 There are     34009 function pairs (     57654 Cartesian)
 
 -------------------------------------------------------
 OpenMP Integral Computing Module                       
 Release: version 1.0, May 2013, Q-Chem Inc. Pittsburgh 
 -------------------------------------------------------
 Integral Job Info:
 Integral job number is                      11
 Integral operator is                         1
 short-range coefficients                     0
 long-range coefficients              100000000
 Omega coefficients                           0
 if combine SR and LR in K                    0
 Integral screening is                        0
 Integral computing path is                   2
 max size of driver memory is           3200000
 size of driver memory is               1704330
 size of scratch memory is             29417912
 max col of scratch BK array              50625
 max len of scratch array in speh3         2114
 max len of scratch index in speh4           50
 max int batch size is                      520
 min int batch size is                       52
 fixed nKL is                                16
 max L of basis functions is                  4
 order of int derivative is                   0
 number of shells is                         68
 number of basis is                         348
 number of cartesian basis is               348
 number of contracted shell pairs          2153
 number of primitive shell pairs          11329
 maxK2 (contraction) of shell pair          169
 max number of K2 of shell pair               1
 max number of CS2 of shell pair            186
 max number of PS2 of shell pair           2028
 mem total for path MDJ                  752464
 -------------------------------------------------------
 Smallest overlap matrix eigenvalue = 9.12E-05
 Guess MOs from SCF MO coefficient file

 -----------------------------------------------------------------------
  General SCF calculation program by
  Eric Jon Sundstrom, Paul Horn, Yuezhi Mao, Dmitri Zuev, Alec White,
  David Stuck, Shaama M.S., Shane Yost, Joonho Lee, David Small,
  Daniel Levine, Susi Lehtola, Hugh Burton, Evgeny Epifanovsky
 -----------------------------------------------------------------------
 Exchange:     0.5000 Hartree-Fock + 0.5000 PTPSS-D3
 Correlation:  0.6250 PTPSS-D3
 Using Euler-Maclaurin-Lebedev (99,590) quadrature formula
 Dispersion:   Grimme D3
 using 8 threads for integral computing
 -------------------------------------------------------
 OpenMP Integral computing Module                
 Release: version 2.0, May 2017, Q-Chem Inc. Pleasanton 
 -------------------------------------------------------
 -------------------------------------------------------
 OpenMP BLAS3 based DFT computing Module                
 Release: version 1.0, May 2013, Q-Chem Inc. Pittsburgh 
 -------------------------------------------------------
 A restricted SCF calculation will be
 performed using GDM
 SCF converges when RMS gradient is below 1.0e-08
 ---------------------------------------
  Cycle       Energy        RMS Gradient
 ---------------------------------------
    1    -399.8605846024      1.36e-03   Normal BFGS step
    2    -399.8605948195      2.84e-04   Normal BFGS step
    3    -399.8605952935      4.44e-05   Normal BFGS step
    4    -399.8605953124      1.03e-05   Normal BFGS step
    5    -399.8605953138      2.21e-06   Normal BFGS step
    6    -399.8605953138      7.10e-07   Normal BFGS step
    7    -399.8605953138      6.87e-08   Normal BFGS step
    8    -399.8605953138      9.77e-09  Convergence criterion met
 ---------------------------------------
 SCF time:   CPU 3115.05s  wall 394.00s 
 SCF   energy in the final basis set =     -399.8605953138
 Total energy in the final basis set =     -399.8605953138
 
 Components of the MP2 correlation energy:
        aaaa  correlation energy =         0.0000000000 au
        abab  correlation energy =        -0.2393766890 au
        bbbb  correlation energy =         0.0000000000 au
        non-Brillouin singles    =        -0.0000000000 au

 Total  MP2   correlation energy =                    -0.23937669 au
        MP2         total energy =                  -400.09997200 au
 
 --------------------------------------------------------------
 
                    Orbital Energies (a.u.)
 --------------------------------------------------------------
 
 Alpha MOs
 -- Occupied --
-47.705 -47.705  -3.368  -3.368  -2.007  -2.007  -2.007  -2.007
 -2.007  -2.007  -0.245  -0.198
 -- Virtual --
 -0.023  -0.023  -0.021   0.002   0.004   0.005   0.006   0.013
  0.014   0.016   0.018   0.024   0.034   0.050   0.072   0.072
  0.083   0.084   0.086   0.097   0.100   0.101   0.103   0.103
  0.104   0.105   0.109   0.135   0.142   0.144   0.151   0.202
  0.228   0.228   0.232   0.232   0.240   0.241   0.257   0.266
  0.266   0.267   0.267   0.282   0.282   0.301   0.302   0.311
  0.318   0.320   0.321   0.326   0.326   0.329   0.331   0.332
  0.333   0.361   0.430   0.431   0.440   0.443   0.450   0.600
  0.626   0.626   0.633   0.633   0.651   0.652   0.655   0.657
  0.657   0.680   0.680   0.697   0.697   0.708   0.708   0.727
  0.727   0.733   0.734   0.737   0.737   0.738   0.738   0.759
  0.759   0.760   0.760   0.788   0.788   0.789   0.815   0.817
  0.817   0.829   0.863   0.863   0.877   0.877   0.950   0.965
  0.976   0.976   0.978   0.979   1.060   1.096   1.097   1.387
  1.496   1.496   1.507   1.507   1.511   1.511   1.549   1.568
  1.568   1.657   1.784   1.784   1.788   1.788   1.791   1.791
  1.794   1.794   1.803   1.803   1.807   1.807   1.819   1.819
  1.832   1.832   1.833   1.833   1.843   1.845   1.845   1.876
  1.877   1.898   1.906   1.906   1.908   1.908   1.941   1.958
  1.958   2.082   2.656   2.769   4.293   4.293   4.301   4.301
  4.304   4.304   4.341   4.354   4.354   4.445   4.775   4.775
  4.796   4.796   4.813   5.076   9.557   9.557   9.557   9.557
  9.560   9.560   9.561   9.561   9.567   9.567   9.579   9.590
  9.590   9.614  11.034  11.182  13.713  13.713  13.719  13.719
 13.720  13.720  13.750  13.755  13.755  13.819  22.339  22.339
 22.353  22.353  22.368  22.535  25.078  25.078  25.078  25.078
 25.078  25.078  25.079  25.079  25.079  25.079  25.079  25.079
 25.079  25.079  25.079  25.079  25.079  25.080  32.367  32.367
 32.367  32.367  32.369  32.369  32.369  32.369  32.373  32.373
 32.378  32.385  32.385  32.399  35.802  35.925  41.532  41.532
 41.537  41.537  41.537  41.537  41.559  41.562  41.562  41.606
 90.198  90.198  90.208  90.208  90.219  90.339 154.217 154.425
 --------------------------------------------------------------
 
          Ground-State Mulliken Net Atomic Charges

     Atom                 Charge (a.u.)
  ----------------------------------------
      1 Mg                   -0.000000
      2 Mg                    0.000000
  ----------------------------------------
  Sum of atomic charges =    -0.000000

 -----------------------------------------------------------------
                    Cartesian Multipole Moments
 -----------------------------------------------------------------
    Charge (ESU x 10^10)
                -0.0000
    Dipole Moment (Debye)
         X       0.0000      Y       0.0000      Z      -0.0000
       Tot       0.0000
    Quadrupole Moments (Debye-Ang)
        XX     -25.2586     XY      -0.0000     YY     -25.4035
        XZ      -0.0000     YZ       0.0000     ZZ     -26.9901
    Octopole Moments (Debye-Ang^2)
       XXX       0.0000    XXY      -0.0000    XYY      -0.0000
       YYY       0.0000    XXZ     -49.1343    XYZ      -0.0000
       YYZ     -49.4162    XZZ      -0.0000    YZZ       0.0000
       ZZZ    -157.5076
    Hexadecapole Moments (Debye-Ang^3)
      XXXX     -73.1765   XXXY      -0.0000   XXYY     -24.6010
      XYYY      -0.0000   YYYY     -74.4333   XXXZ       0.0000
      XXYZ      -0.0000   XYYZ      -0.0000   YYYZ       0.0000
      XXZZ    -219.7705   XYZZ      -0.0000   YYZZ    -221.1462
      XZZZ      -0.0000   YZZZ       0.0000   ZZZZ   -1299.3810
 -----------------------------------------------------------------
Archival summary:
1\1\n0077.mhg0\SP\ProcedureUnspecified\BasisUnspecified\g2\yhljason\SatOct315:07:132020SatOct315:07:132020\0\\#,ProcedureUnspecified,BasisUnspecified,\\0,1\Mg\Mg,1,3.8905\\\@

 Total job time:  827.96s(wall), 6544.04s(cpu) 
 Sat Oct  3 15:07:13 2020

        *************************************************************
        *                                                           *
        *  Thank you very much for using Q-Chem.  Have a nice day.  *
        *                                                           *
        *************************************************************


 
User input: 6 of 8 
 
Q-Chem Developer Version!
                  Welcome to Q-Chem
     A Quantum Leap Into The Future Of Chemistry


 Q-Chem 5.1, Q-Chem, Inc., Pleasanton, CA (2018)

 Yihan Shao,  Zhengting Gan,  E. Epifanovsky,  A. T. B. Gilbert,  M. Wormit,  
 J. Kussmann,  A. W. Lange,  A. Behn,  Jia Deng,  Xintian Feng,  D. Ghosh,  
 M. Goldey,  P. R. Horn,  L. D. Jacobson,  I. Kaliman,  T. Kus,  A. Landau,  
 Jie Liu,  E. I. Proynov,  R. M. Richard,  R. P. Steele,  E. J. Sundstrom,  
 H. L. Woodcock III,  P. M. Zimmerman,  D. Zuev,  B. Albrecht,  E. Alguire,  
 S. A. Baeppler,  D. Barton,  Z. Benda,  Y. A. Bernard,  E. J. Berquist,  
 K. B. Bravaya,  H. Burton,  D. Casanova,  Chun-Min Chang,  Yunqing Chen,  
 A. Chien,  K. D. Closser,  M. P. Coons,  S. Coriani,  S. Dasgupta,  
 A. L. Dempwolff,  M. Diedenhofen,  Hainam Do,  R. G. Edgar,  Po-Tung Fang,  
 S. Faraji,  S. Fatehi,  Qingguo Feng,  K. D. Fenk,  J. Fosso-Tande,  
 Qinghui Ge,  A. Ghysels,  G. Gidofalvi,  J. Gomes,  J. Gonthier,  A. Gunina,  
 D. Hait,  M. W. D. Hanson-Heine,  P. H. P. Harbach,  A. W. Hauser,  
 J. E. Herr,  E. G. Hohenstein,  Z. C. Holden,  Kerwin Hui,  B. C. Huynh,  
 T.-C. Jagau,  Hyunjun Ji,  B. Kaduk,  K. Khistyaev,  Jaehoon Kim,  
 P. Klunzinger,  K. Koh,  D. Kosenkov,  L. Koulias,  T. Kowalczyk,  
 C. M. Krauter,  A. Kunitsa,  Ka Un Lao,  A. Laurent,  K. V. Lawler,  
 Joonho Lee,  D. Lefrancois,  S. Lehtola,  D. S. Levine,  Yi-Pei Li,  
 You-Sheng Lin,  Fenglai Liu,  E. Livshits,  A. Luenser,  P. Manohar,  
 E. Mansoor,  S. F. Manzer,  Shan-Ping Mao,  Yuezhi Mao,  N. Mardirossian,  
 A. V. Marenich,  T. Markovich,  L. A. Martinez-Martinez,  S. A. Maurer,  
 N. J. Mayhall,  S. C. McKenzie,  J.-M. Mewes,  A. F. Morrison,  
 J. W. Mullinax,  K. Nanda,  T. S. Nguyen-Beck,  R. Olivares-Amaya,  
 J. A. Parkhill,  T. M. Perrine,  F. Plasser,  P. Pokhilko,  S. Prager,  
 A. Prociuk,  E. Ramos,  D. R. Rehn,  F. Rob,  M. Schneider,  N. Sergueev,  
 S. M. Sharada,  S. Sharma,  D. W. Small,  T. Stauch,  T. Stein,  
 Yu-Chuan Su,  A. J. W. Thom,  A. Tkatchenko,  T. Tsuchimochi,  N. M. Tubman,  
 L. Vogt,  M. L. Vidal,  O. Vydrov,  M. A. Watson,  J. Wenzel,  
 M. de Wergifosse,  T. A. Wesolowski,  A. White,  J. Witte,  A. Yamada,  
 Jun Yang,  K. Yao,  S. Yeganeh,  S. R. Yost,  Zhi-Qiang You,  A. Zech,  
 Igor Ying Zhang,  Xing Zhang,  Yan Zhao,  Ying Zhu,  B. R. Brooks,  
 G. K. L. Chan,  C. J. Cramer,  M. S. Gordon,  W. J. Hehre,  A. Klamt,  
 M. W. Schmidt,  C. D. Sherrill,  D. G. Truhlar,  A. Aspuru-Guzik,  R. Baer,  
 A. T. Bell,  N. A. Besley,  Jeng-Da Chai,  A. E. DePrince, III,  
 R. A. DiStasio Jr.,  A. Dreuw,  B. D. Dunietz,  T. R. Furlani,  
 Chao-Ping Hsu,  Yousung Jung,  Jing Kong,  D. S. Lambrecht,  WanZhen Liang,  
 C. Ochsenfeld,  V. A. Rassolov,  L. V. Slipchenko,  J. E. Subotnik,  
 T. Van Voorhis,  J. M. Herbert,  A. I. Krylov,  P. M. W. Gill,  M. Head-Gordon

 Contributors to earlier versions of Q-Chem not listed above: 
 R. D. Adamson,  B. Austin,  J. Baker,  G. J. O. Beran,  K. Brandhorst,  
 S. T. Brown,  E. F. C. Byrd,  A. K. Chakraborty,  C.-L. Cheng,  
 Siu Hung Chien,  D. M. Chipman,  D. L. Crittenden,  H. Dachsel,  
 R. J. Doerksen,  A. D. Dutoi,  L. Fusti-Molnar,  W. A. Goddard III,  
 A. Golubeva-Zadorozhnaya,  S. R. Gwaltney,  G. Hawkins,  A. Heyden,  
 S. Hirata,  G. Kedziora,  F. J. Keil,  C. Kelley,  Jihan Kim,  R. A. King,  
 R. Z. Khaliullin,  P. P. Korambath,  W. Kurlancheek,  A. M. Lee,  M. S. Lee,  
 S. V. Levchenko,  Ching Yeh Lin,  D. Liotard,  R. C. Lochan,  I. Lotan,  
 P. E. Maslen,  N. Nair,  D. P. O'Neill,  D. Neuhauser,  E. Neuscamman,  
 C. M. Oana,  R. Olson,  B. Peters,  R. Peverati,  P. A. Pieniazek,  
 Y. M. Rhee,  J. Ritchie,  M. A. Rohrdanz,  E. Rosta,  N. J. Russ,  
 H. F. Schaefer III,  N. E. Schultz,  N. Shenvi,  A. C. Simmonett,  A. Sodt,  
 D. Stuck,  K. S. Thanthiriwatte,  V. Vanovschi,  Tao Wang,  A. Warshel,  
 C. F. Williams,  Q. Wu,  X. Xu,  W. Zhang

 Please cite Q-Chem as follows:
 Y. Shao et al., Mol. Phys. 113, 184-215 (2015)
 DOI: 10.1080/00268976.2014.952696

 Q-Chem 5.1.1 for Intel X86 EM64T Linux

 Parts of Q-Chem use Armadillo 8.300.2 (Tropical Shenanigans).
 http://arma.sourceforge.net/

 Q-Chem begins on Sat Oct  3 15:07:13 2020  

Host: n0077.mhg0
0

     Scratch files written to /local/scratch/users/yhljason/Mg2_PTPSS-D3_aug-cc-pcVQZ.inp20201003135110//
The previous job contains 0 fragments, simply inherited here
Input Ideriv = 0
Curr. Ideriv = -1
Max.  Ideriv = 0
Analytic post-HF gradients are not available with non-HF exchange
Input Ideriv = 0
Curr. Ideriv = 0
Max.  Ideriv = 0

Checking the input file for inconsistencies... 	...done.

--------------------------------------------------------------
User input:
--------------------------------------------------------------
$molecule
read
$end

$rem

jobtype sp
method PTPSS-D3
xc_grid 000099000590
basis aug-cc-pcVQZ
max_scf_cycles 200
thresh 14
scf_convergence 8
mem_total 128000
cc_memory 96000
cc_backend xm
mem_static 1500
symmetry false
sym_ignore true
scf_guess read
unrestricted false
scf_algorithm gdm
n_frozen_core 0
$end

$multipole_field
YY -0.0001
$end


--------------------------------------------------------------
 Adding empirical dispersion correction 
 ----------------------------------------------------------------
 Doing -D3(0) with
 s6  =   0.75000
 s8  =   0.87900
 rs6 =   1.54100
 rs8 =   1.00000
 -D3 energy without 3body term =     -0.0030605923 hartrees
 ----------------------------------------------------------------
             Standard Nuclear Orientation (Angstroms)
    I     Atom           X                Y                Z
 ----------------------------------------------------------------
    1      Mg      0.0000000000     0.0000000000     0.0000000000
    2      Mg      0.0000000000     0.0000000000     3.8905000000
 ----------------------------------------------------------------
 Nuclear Repulsion Energy =    19.5835011234 hartrees
 There are       12 alpha and       12 beta electrons
 Requested basis set is aug-cc-pCVQZ
 There are 68 shells and 268 basis functions

 Total QAlloc Memory Limit 128000 MB
 Mega-Array Size      1467 MB
 MEM_STATIC part      1500 MB

                       Distance Matrix (Angstroms)
             Mg(  1)
   Mg(  2)  3.890500
 
 Applying Cartesian multipole field
    Component          Value
    ---------          -----
     (0,2,0)       -1.00000E-04
 A cutoff of  1.0D-14 yielded   2153 shell pairs
 There are     34009 function pairs (     57654 Cartesian)
 
 -------------------------------------------------------
 OpenMP Integral Computing Module                       
 Release: version 1.0, May 2013, Q-Chem Inc. Pittsburgh 
 -------------------------------------------------------
 Integral Job Info:
 Integral job number is                      11
 Integral operator is                         1
 short-range coefficients                     0
 long-range coefficients              100000000
 Omega coefficients                           0
 if combine SR and LR in K                    0
 Integral screening is                        0
 Integral computing path is                   2
 max size of driver memory is           3200000
 size of driver memory is               1704330
 size of scratch memory is             29417912
 max col of scratch BK array              50625
 max len of scratch array in speh3         2114
 max len of scratch index in speh4           50
 max int batch size is                      520
 min int batch size is                       52
 fixed nKL is                                16
 max L of basis functions is                  4
 order of int derivative is                   0
 number of shells is                         68
 number of basis is                         348
 number of cartesian basis is               348
 number of contracted shell pairs          2153
 number of primitive shell pairs          11329
 maxK2 (contraction) of shell pair          169
 max number of K2 of shell pair               1
 max number of CS2 of shell pair            186
 max number of PS2 of shell pair           2028
 mem total for path MDJ                  752464
 -------------------------------------------------------
 Smallest overlap matrix eigenvalue = 9.12E-05
 Guess MOs from SCF MO coefficient file

 -----------------------------------------------------------------------
  General SCF calculation program by
  Eric Jon Sundstrom, Paul Horn, Yuezhi Mao, Dmitri Zuev, Alec White,
  David Stuck, Shaama M.S., Shane Yost, Joonho Lee, David Small,
  Daniel Levine, Susi Lehtola, Hugh Burton, Evgeny Epifanovsky
 -----------------------------------------------------------------------
 Exchange:     0.5000 Hartree-Fock + 0.5000 PTPSS-D3
 Correlation:  0.6250 PTPSS-D3
 Using Euler-Maclaurin-Lebedev (99,590) quadrature formula
 Dispersion:   Grimme D3
 using 8 threads for integral computing
 -------------------------------------------------------
 OpenMP Integral computing Module                
 Release: version 2.0, May 2017, Q-Chem Inc. Pleasanton 
 -------------------------------------------------------
 -------------------------------------------------------
 OpenMP BLAS3 based DFT computing Module                
 Release: version 1.0, May 2013, Q-Chem Inc. Pittsburgh 
 -------------------------------------------------------
 A restricted SCF calculation will be
 performed using GDM
 SCF converges when RMS gradient is below 1.0e-08
 ---------------------------------------
  Cycle       Energy        RMS Gradient
 ---------------------------------------
    1    -399.8568179313      1.95e-03   Normal BFGS step
    2    -399.8568383213      5.01e-04   Normal BFGS step
    3    -399.8568395425      5.89e-05   Normal BFGS step
    4    -399.8568395682      1.53e-05   Normal BFGS step
    5    -399.8568395715      2.20e-06   Normal BFGS step
    6    -399.8568395715      8.22e-07   Normal BFGS step
    7    -399.8568395715      4.91e-08   Normal BFGS step
    8    -399.8568395715      1.18e-08   Normal BFGS step
    9    -399.8568395715      2.55e-09  Convergence criterion met
 ---------------------------------------
 SCF time:   CPU 3428.13s  wall 433.00s 
 SCF   energy in the final basis set =     -399.8568395715
 Total energy in the final basis set =     -399.8568395715
 
 Components of the MP2 correlation energy:
        aaaa  correlation energy =         0.0000000000 au
        abab  correlation energy =        -0.2394260324 au
        bbbb  correlation energy =         0.0000000000 au
        non-Brillouin singles    =        -0.0000000000 au

 Total  MP2   correlation energy =                    -0.23942603 au
        MP2         total energy =                  -400.09626560 au
 
 --------------------------------------------------------------
 
                    Orbital Energies (a.u.)
 --------------------------------------------------------------
 
 Alpha MOs
 -- Occupied --
-47.704 -47.704  -3.367  -3.367  -2.006  -2.006  -2.006  -2.006
 -2.006  -2.006  -0.244  -0.197
 -- Virtual --
 -0.022  -0.019  -0.017   0.009   0.011   0.013   0.020   0.023
  0.026   0.031   0.032   0.038   0.042   0.057   0.077   0.077
  0.089   0.089   0.091   0.103   0.107   0.107   0.107   0.108
  0.109   0.112   0.115   0.140   0.147   0.149   0.155   0.206
  0.231   0.231   0.235   0.235   0.243   0.243   0.259   0.269
  0.269   0.270   0.270   0.285   0.285   0.304   0.305   0.314
  0.322   0.323   0.325   0.329   0.329   0.333   0.335   0.335
  0.336   0.363   0.432   0.433   0.443   0.446   0.452   0.602
  0.627   0.627   0.634   0.634   0.653   0.653   0.657   0.659
  0.659   0.682   0.682   0.699   0.699   0.710   0.710   0.728
  0.729   0.735   0.735   0.739   0.739   0.740   0.740   0.761
  0.761   0.762   0.762   0.790   0.790   0.791   0.816   0.819
  0.819   0.831   0.864   0.865   0.879   0.879   0.951   0.966
  0.978   0.978   0.980   0.981   1.061   1.098   1.098   1.388
  1.497   1.497   1.508   1.509   1.512   1.512   1.550   1.569
  1.569   1.658   1.786   1.786   1.789   1.789   1.792   1.792
  1.795   1.795   1.805   1.805   1.809   1.809   1.820   1.820
  1.833   1.833   1.835   1.835   1.844   1.846   1.846   1.878
  1.878   1.900   1.907   1.907   1.909   1.909   1.943   1.959
  1.959   2.083   2.658   2.770   4.294   4.294   4.302   4.302
  4.305   4.305   4.343   4.356   4.356   4.446   4.776   4.776
  4.797   4.797   4.814   5.077   9.558   9.558   9.559   9.559
  9.562   9.562   9.562   9.562   9.569   9.569   9.580   9.591
  9.591   9.615  11.036  11.183  13.714  13.714  13.720  13.720
 13.721  13.721  13.751  13.756  13.756  13.820  22.341  22.341
 22.355  22.355  22.369  22.536  25.079  25.079  25.079  25.079
 25.079  25.079  25.080  25.080  25.080  25.080  25.080  25.080
 25.080  25.081  25.081  25.081  25.081  25.081  32.368  32.368
 32.368  32.368  32.370  32.370  32.370  32.370  32.374  32.374
 32.379  32.386  32.386  32.400  35.803  35.926  41.533  41.533
 41.538  41.538  41.539  41.539  41.560  41.563  41.563  41.607
 90.199  90.199  90.209  90.209  90.220  90.340 154.218 154.426
 --------------------------------------------------------------
 
          Ground-State Mulliken Net Atomic Charges

     Atom                 Charge (a.u.)
  ----------------------------------------
      1 Mg                   -0.000000
      2 Mg                    0.000000
  ----------------------------------------
  Sum of atomic charges =    -0.000000

 -----------------------------------------------------------------
                    Cartesian Multipole Moments
 -----------------------------------------------------------------
    Charge (ESU x 10^10)
                -0.0000
    Dipole Moment (Debye)
         X      -0.0000      Y      -0.0000      Z       0.0000
       Tot       0.0000
    Quadrupole Moments (Debye-Ang)
        XX     -25.2562     XY       0.0000     YY     -25.1157
        XZ      -0.0000     YZ      -0.0000     ZZ     -26.9978
    Octopole Moments (Debye-Ang^2)
       XXX      -0.0000    XXY      -0.0000    XYY      -0.0000
       YYY      -0.0000    XXZ     -49.1297    XYZ       0.0000
       YYZ     -48.8564    XZZ      -0.0000    YZZ      -0.0000
       ZZZ    -157.5526
    Hexadecapole Moments (Debye-Ang^3)
      XXXX     -73.0382   XXXY       0.0000   XXYY     -24.1457
      XYYY       0.0000   YYYY     -71.8399   XXXZ      -0.0000
      XXYZ      -0.0000   XYYZ      -0.0000   YYYZ      -0.0000
      XXZZ    -219.6943   XYZZ       0.0000   YYZZ    -218.3635
      XZZZ       0.0000   YZZZ      -0.0000   ZZZZ   -1299.4014
 -----------------------------------------------------------------
Archival summary:
1\1\n0077.mhg0\SP\ProcedureUnspecified\BasisUnspecified\g2\yhljason\SatOct315:21:402020SatOct315:21:402020\0\\#,ProcedureUnspecified,BasisUnspecified,\\0,1\Mg\Mg,1,3.8905\\\@

 Total job time:  867.35s(wall), 6852.46s(cpu) 
 Sat Oct  3 15:21:40 2020

        *************************************************************
        *                                                           *
        *  Thank you very much for using Q-Chem.  Have a nice day.  *
        *                                                           *
        *************************************************************


 
User input: 7 of 8 
 
Q-Chem Developer Version!
                  Welcome to Q-Chem
     A Quantum Leap Into The Future Of Chemistry


 Q-Chem 5.1, Q-Chem, Inc., Pleasanton, CA (2018)

 Yihan Shao,  Zhengting Gan,  E. Epifanovsky,  A. T. B. Gilbert,  M. Wormit,  
 J. Kussmann,  A. W. Lange,  A. Behn,  Jia Deng,  Xintian Feng,  D. Ghosh,  
 M. Goldey,  P. R. Horn,  L. D. Jacobson,  I. Kaliman,  T. Kus,  A. Landau,  
 Jie Liu,  E. I. Proynov,  R. M. Richard,  R. P. Steele,  E. J. Sundstrom,  
 H. L. Woodcock III,  P. M. Zimmerman,  D. Zuev,  B. Albrecht,  E. Alguire,  
 S. A. Baeppler,  D. Barton,  Z. Benda,  Y. A. Bernard,  E. J. Berquist,  
 K. B. Bravaya,  H. Burton,  D. Casanova,  Chun-Min Chang,  Yunqing Chen,  
 A. Chien,  K. D. Closser,  M. P. Coons,  S. Coriani,  S. Dasgupta,  
 A. L. Dempwolff,  M. Diedenhofen,  Hainam Do,  R. G. Edgar,  Po-Tung Fang,  
 S. Faraji,  S. Fatehi,  Qingguo Feng,  K. D. Fenk,  J. Fosso-Tande,  
 Qinghui Ge,  A. Ghysels,  G. Gidofalvi,  J. Gomes,  J. Gonthier,  A. Gunina,  
 D. Hait,  M. W. D. Hanson-Heine,  P. H. P. Harbach,  A. W. Hauser,  
 J. E. Herr,  E. G. Hohenstein,  Z. C. Holden,  Kerwin Hui,  B. C. Huynh,  
 T.-C. Jagau,  Hyunjun Ji,  B. Kaduk,  K. Khistyaev,  Jaehoon Kim,  
 P. Klunzinger,  K. Koh,  D. Kosenkov,  L. Koulias,  T. Kowalczyk,  
 C. M. Krauter,  A. Kunitsa,  Ka Un Lao,  A. Laurent,  K. V. Lawler,  
 Joonho Lee,  D. Lefrancois,  S. Lehtola,  D. S. Levine,  Yi-Pei Li,  
 You-Sheng Lin,  Fenglai Liu,  E. Livshits,  A. Luenser,  P. Manohar,  
 E. Mansoor,  S. F. Manzer,  Shan-Ping Mao,  Yuezhi Mao,  N. Mardirossian,  
 A. V. Marenich,  T. Markovich,  L. A. Martinez-Martinez,  S. A. Maurer,  
 N. J. Mayhall,  S. C. McKenzie,  J.-M. Mewes,  A. F. Morrison,  
 J. W. Mullinax,  K. Nanda,  T. S. Nguyen-Beck,  R. Olivares-Amaya,  
 J. A. Parkhill,  T. M. Perrine,  F. Plasser,  P. Pokhilko,  S. Prager,  
 A. Prociuk,  E. Ramos,  D. R. Rehn,  F. Rob,  M. Schneider,  N. Sergueev,  
 S. M. Sharada,  S. Sharma,  D. W. Small,  T. Stauch,  T. Stein,  
 Yu-Chuan Su,  A. J. W. Thom,  A. Tkatchenko,  T. Tsuchimochi,  N. M. Tubman,  
 L. Vogt,  M. L. Vidal,  O. Vydrov,  M. A. Watson,  J. Wenzel,  
 M. de Wergifosse,  T. A. Wesolowski,  A. White,  J. Witte,  A. Yamada,  
 Jun Yang,  K. Yao,  S. Yeganeh,  S. R. Yost,  Zhi-Qiang You,  A. Zech,  
 Igor Ying Zhang,  Xing Zhang,  Yan Zhao,  Ying Zhu,  B. R. Brooks,  
 G. K. L. Chan,  C. J. Cramer,  M. S. Gordon,  W. J. Hehre,  A. Klamt,  
 M. W. Schmidt,  C. D. Sherrill,  D. G. Truhlar,  A. Aspuru-Guzik,  R. Baer,  
[...]
        MP2         total energy =                  -400.10017228 au
 
 --------------------------------------------------------------
 
                    Orbital Energies (a.u.)
 --------------------------------------------------------------
 
 Alpha MOs
 -- Occupied --
-47.710 -47.708  -3.372  -3.370  -2.012  -2.012  -2.012  -2.009
 -2.009  -2.009  -0.248  -0.202
 -- Virtual --
 -0.030  -0.024  -0.024  -0.019  -0.001  -0.001   0.001   0.011
  0.011   0.013   0.018   0.018   0.024   0.046   0.071   0.071
  0.076   0.081   0.081   0.097   0.097   0.098   0.101   0.101
  0.101   0.101   0.107   0.130   0.140   0.140   0.147   0.195
  0.226   0.226   0.229   0.229   0.237   0.237   0.252   0.263
  0.263   0.265   0.265   0.279   0.279   0.297   0.297   0.307
  0.315   0.318   0.318   0.323   0.323   0.327   0.327   0.330
  0.330   0.356   0.426   0.426   0.435   0.439   0.445   0.596
  0.622   0.622   0.629   0.629   0.648   0.648   0.652   0.654
  0.654   0.678   0.678   0.694   0.694   0.705   0.705   0.723
  0.723   0.730   0.730   0.734   0.734   0.735   0.735   0.756
  0.756   0.757   0.757   0.785   0.785   0.785   0.811   0.813
  0.813   0.826   0.859   0.859   0.874   0.874   0.946   0.960
  0.972   0.972   0.976   0.976   1.056   1.093   1.093   1.383
  1.492   1.492   1.504   1.504   1.508   1.508   1.545   1.564
  1.564   1.653   1.781   1.781   1.785   1.785   1.787   1.787
  1.791   1.791   1.801   1.801   1.804   1.804   1.816   1.816
  1.828   1.828   1.830   1.830   1.839   1.842   1.842   1.873
  1.873   1.895   1.901   1.901   1.905   1.905   1.938   1.954
  1.954   2.078   2.653   2.765   4.290   4.290   4.298   4.298
  4.301   4.301   4.338   4.351   4.351   4.441   4.772   4.772
  4.793   4.793   4.809   5.072   9.554   9.554   9.554   9.554
  9.557   9.557   9.558   9.558   9.564   9.564   9.575   9.587
  9.587   9.611  11.031  11.179  13.709  13.709  13.715  13.715
 13.717  13.717  13.746  13.751  13.751  13.815  22.336  22.336
 22.350  22.350  22.364  22.531  25.074  25.074  25.074  25.074
 25.074  25.074  25.075  25.075  25.075  25.076  25.076  25.076
 25.076  25.077  25.077  25.077  25.077  25.077  32.363  32.363
 32.363  32.363  32.365  32.365  32.366  32.366  32.369  32.369
 32.375  32.381  32.381  32.395  35.799  35.922  41.528  41.528
 41.533  41.533  41.534  41.534  41.556  41.558  41.558  41.602
 90.194  90.194  90.205  90.205  90.215  90.336 154.213 154.422
 --------------------------------------------------------------
 
          Ground-State Mulliken Net Atomic Charges

     Atom                 Charge (a.u.)
  ----------------------------------------
      1 Mg                    0.001512
      2 Mg                   -0.001512
  ----------------------------------------
  Sum of atomic charges =    -0.000000

 -----------------------------------------------------------------
                    Cartesian Multipole Moments
 -----------------------------------------------------------------
    Charge (ESU x 10^10)
                -0.0000
    Dipole Moment (Debye)
         X      -0.0000      Y      -0.0000      Z      -0.4515
       Tot       0.4515
    Quadrupole Moments (Debye-Ang)
        XX     -25.2561     XY       0.0000     YY     -25.2561
        XZ      -0.0000     YZ      -0.0000     ZZ     -29.8591
    Octopole Moments (Debye-Ang^2)
       XXX       0.0000    XXY       0.0000    XYY      -0.0000
       YYY      -0.0000    XXZ     -49.8427    XYZ       0.0000
       YYZ     -49.8427    XZZ      -0.0000    YZZ      -0.0000
       ZZZ    -176.0335
    Hexadecapole Moments (Debye-Ang^3)
      XXXX     -73.1816   XXXY       0.0000   XXYY     -24.3939
      XYYY       0.0000   YYYY     -73.1816   XXXZ       0.0000
      XXYZ       0.0000   XYYZ      -0.0000   YYYZ      -0.0000
      XXZZ    -224.1666   XYZZ       0.0000   YYZZ    -224.1666
      XZZZ      -0.0000   YZZZ      -0.0000   ZZZZ   -1413.8529
 -----------------------------------------------------------------
Archival summary:
1\1\n0077.mhg0\SP\ProcedureUnspecified\BasisUnspecified\g2\yhljason\SatOct315:36:552020SatOct315:36:552020\0\\#,ProcedureUnspecified,BasisUnspecified,\\0,1\Mg\Mg,1,3.8905\\\@

 Total job time:  914.50s(wall), 7223.63s(cpu) 
 Sat Oct  3 15:36:55 2020

        *************************************************************
        *                                                           *
        *  Thank you very much for using Q-Chem.  Have a nice day.  *
        *                                                           *
        *************************************************************


 
User input: 8 of 8 
 
Q-Chem Developer Version!
                  Welcome to Q-Chem
     A Quantum Leap Into The Future Of Chemistry


 Q-Chem 5.1, Q-Chem, Inc., Pleasanton, CA (2018)

 Yihan Shao,  Zhengting Gan,  E. Epifanovsky,  A. T. B. Gilbert,  M. Wormit,  
 J. Kussmann,  A. W. Lange,  A. Behn,  Jia Deng,  Xintian Feng,  D. Ghosh,  
 M. Goldey,  P. R. Horn,  L. D. Jacobson,  I. Kaliman,  T. Kus,  A. Landau,  
 Jie Liu,  E. I. Proynov,  R. M. Richard,  R. P. Steele,  E. J. Sundstrom,  
 H. L. Woodcock III,  P. M. Zimmerman,  D. Zuev,  B. Albrecht,  E. Alguire,  
 S. A. Baeppler,  D. Barton,  Z. Benda,  Y. A. Bernard,  E. J. Berquist,  
 K. B. Bravaya,  H. Burton,  D. Casanova,  Chun-Min Chang,  Yunqing Chen,  
 A. Chien,  K. D. Closser,  M. P. Coons,  S. Coriani,  S. Dasgupta,  
 A. L. Dempwolff,  M. Diedenhofen,  Hainam Do,  R. G. Edgar,  Po-Tung Fang,  
 S. Faraji,  S. Fatehi,  Qingguo Feng,  K. D. Fenk,  J. Fosso-Tande,  
 Qinghui Ge,  A. Ghysels,  G. Gidofalvi,  J. Gomes,  J. Gonthier,  A. Gunina,  
 D. Hait,  M. W. D. Hanson-Heine,  P. H. P. Harbach,  A. W. Hauser,  
 J. E. Herr,  E. G. Hohenstein,  Z. C. Holden,  Kerwin Hui,  B. C. Huynh,  
 T.-C. Jagau,  Hyunjun Ji,  B. Kaduk,  K. Khistyaev,  Jaehoon Kim,  
 P. Klunzinger,  K. Koh,  D. Kosenkov,  L. Koulias,  T. Kowalczyk,  
 C. M. Krauter,  A. Kunitsa,  Ka Un Lao,  A. Laurent,  K. V. Lawler,  
 Joonho Lee,  D. Lefrancois,  S. Lehtola,  D. S. Levine,  Yi-Pei Li,  
 You-Sheng Lin,  Fenglai Liu,  E. Livshits,  A. Luenser,  P. Manohar,  
 E. Mansoor,  S. F. Manzer,  Shan-Ping Mao,  Yuezhi Mao,  N. Mardirossian,  
 A. V. Marenich,  T. Markovich,  L. A. Martinez-Martinez,  S. A. Maurer,  
 N. J. Mayhall,  S. C. McKenzie,  J.-M. Mewes,  A. F. Morrison,  
 J. W. Mullinax,  K. Nanda,  T. S. Nguyen-Beck,  R. Olivares-Amaya,  
 J. A. Parkhill,  T. M. Perrine,  F. Plasser,  P. Pokhilko,  S. Prager,  
 A. Prociuk,  E. Ramos,  D. R. Rehn,  F. Rob,  M. Schneider,  N. Sergueev,  
 S. M. Sharada,  S. Sharma,  D. W. Small,  T. Stauch,  T. Stein,  
 Yu-Chuan Su,  A. J. W. Thom,  A. Tkatchenko,  T. Tsuchimochi,  N. M. Tubman,  
 L. Vogt,  M. L. Vidal,  O. Vydrov,  M. A. Watson,  J. Wenzel,  
 M. de Wergifosse,  T. A. Wesolowski,  A. White,  J. Witte,  A. Yamada,  
 Jun Yang,  K. Yao,  S. Yeganeh,  S. R. Yost,  Zhi-Qiang You,  A. Zech,  
 Igor Ying Zhang,  Xing Zhang,  Yan Zhao,  Ying Zhu,  B. R. Brooks,  
 G. K. L. Chan,  C. J. Cramer,  M. S. Gordon,  W. J. Hehre,  A. Klamt,  
 M. W. Schmidt,  C. D. Sherrill,  D. G. Truhlar,  A. Aspuru-Guzik,  R. Baer,  
 A. T. Bell,  N. A. Besley,  Jeng-Da Chai,  A. E. DePrince, III,  
 R. A. DiStasio Jr.,  A. Dreuw,  B. D. Dunietz,  T. R. Furlani,  
 Chao-Ping Hsu,  Yousung Jung,  Jing Kong,  D. S. Lambrecht,  WanZhen Liang,  
 C. Ochsenfeld,  V. A. Rassolov,  L. V. Slipchenko,  J. E. Subotnik,  
 T. Van Voorhis,  J. M. Herbert,  A. I. Krylov,  P. M. W. Gill,  M. Head-Gordon

 Contributors to earlier versions of Q-Chem not listed above: 
 R. D. Adamson,  B. Austin,  J. Baker,  G. J. O. Beran,  K. Brandhorst,  
 S. T. Brown,  E. F. C. Byrd,  A. K. Chakraborty,  C.-L. Cheng,  
 Siu Hung Chien,  D. M. Chipman,  D. L. Crittenden,  H. Dachsel,  
 R. J. Doerksen,  A. D. Dutoi,  L. Fusti-Molnar,  W. A. Goddard III,  
 A. Golubeva-Zadorozhnaya,  S. R. Gwaltney,  G. Hawkins,  A. Heyden,  
 S. Hirata,  G. Kedziora,  F. J. Keil,  C. Kelley,  Jihan Kim,  R. A. King,  
 R. Z. Khaliullin,  P. P. Korambath,  W. Kurlancheek,  A. M. Lee,  M. S. Lee,  
 S. V. Levchenko,  Ching Yeh Lin,  D. Liotard,  R. C. Lochan,  I. Lotan,  
 P. E. Maslen,  N. Nair,  D. P. O'Neill,  D. Neuhauser,  E. Neuscamman,  
 C. M. Oana,  R. Olson,  B. Peters,  R. Peverati,  P. A. Pieniazek,  
 Y. M. Rhee,  J. Ritchie,  M. A. Rohrdanz,  E. Rosta,  N. J. Russ,  
 H. F. Schaefer III,  N. E. Schultz,  N. Shenvi,  A. C. Simmonett,  A. Sodt,  
 D. Stuck,  K. S. Thanthiriwatte,  V. Vanovschi,  Tao Wang,  A. Warshel,  
 C. F. Williams,  Q. Wu,  X. Xu,  W. Zhang

 Please cite Q-Chem as follows:
 Y. Shao et al., Mol. Phys. 113, 184-215 (2015)
 DOI: 10.1080/00268976.2014.952696

 Q-Chem 5.1.1 for Intel X86 EM64T Linux

 Parts of Q-Chem use Armadillo 8.300.2 (Tropical Shenanigans).
 http://arma.sourceforge.net/

 Q-Chem begins on Sat Oct  3 15:36:55 2020  

Host: n0077.mhg0
0

     Scratch files written to /local/scratch/users/yhljason/Mg2_PTPSS-D3_aug-cc-pcVQZ.inp20201003135110//
The previous job contains 0 fragments, simply inherited here
Input Ideriv = 0
Curr. Ideriv = -1
Max.  Ideriv = 0
Analytic post-HF gradients are not available with non-HF exchange
Input Ideriv = 0
Curr. Ideriv = 0
Max.  Ideriv = 0

Checking the input file for inconsistencies... 	...done.

--------------------------------------------------------------
User input:
--------------------------------------------------------------
$molecule
read
$end

$rem

jobtype sp
method PTPSS-D3
xc_grid 000099000590
basis aug-cc-pcVQZ
max_scf_cycles 200
thresh 14
scf_convergence 8
mem_total 128000
cc_memory 96000
cc_backend xm
mem_static 1500
symmetry false
sym_ignore true
scf_guess read
unrestricted false
scf_algorithm gdm
n_frozen_core 0
$end

$multipole_field
ZZ -0.0001
$end

--------------------------------------------------------------
 Adding empirical dispersion correction 
 ----------------------------------------------------------------
 Doing -D3(0) with
 s6  =   0.75000
 s8  =   0.87900
 rs6 =   1.54100
 rs8 =   1.00000
 -D3 energy without 3body term =     -0.0030605923 hartrees
 ----------------------------------------------------------------
             Standard Nuclear Orientation (Angstroms)
    I     Atom           X                Y                Z
 ----------------------------------------------------------------
    1      Mg      0.0000000000     0.0000000000     0.0000000000
    2      Mg      0.0000000000     0.0000000000     3.8905000000
 ----------------------------------------------------------------
 Nuclear Repulsion Energy =    19.5835011234 hartrees
 There are       12 alpha and       12 beta electrons
 Requested basis set is aug-cc-pCVQZ
 There are 68 shells and 268 basis functions

 Total QAlloc Memory Limit 128000 MB
 Mega-Array Size      1467 MB
 MEM_STATIC part      1500 MB

                       Distance Matrix (Angstroms)
             Mg(  1)
   Mg(  2)  3.890500
 
 Applying Cartesian multipole field
    Component          Value
    ---------          -----
     (0,0,2)       -1.00000E-04
 Nucleus-field energy     =    -0.0648619229 hartrees
 A cutoff of  1.0D-14 yielded   2153 shell pairs
 There are     34009 function pairs (     57654 Cartesian)
 
 -------------------------------------------------------
 OpenMP Integral Computing Module                       
 Release: version 1.0, May 2013, Q-Chem Inc. Pittsburgh 
 -------------------------------------------------------
 Integral Job Info:
 Integral job number is                      11
 Integral operator is                         1
 short-range coefficients                     0
 long-range coefficients              100000000
 Omega coefficients                           0
 if combine SR and LR in K                    0
 Integral screening is                        0
 Integral computing path is                   2
 max size of driver memory is           3200000
 size of driver memory is               1704330
 size of scratch memory is             29417912
 max col of scratch BK array              50625
 max len of scratch array in speh3         2114
 max len of scratch index in speh4           50
 max int batch size is                      520
 min int batch size is                       52
 fixed nKL is                                16
 max L of basis functions is                  4
 order of int derivative is                   0
 number of shells is                         68
 number of basis is                         348
 number of cartesian basis is               348
 number of contracted shell pairs          2153
 number of primitive shell pairs          11329
 maxK2 (contraction) of shell pair          169
 max number of K2 of shell pair               1
 max number of CS2 of shell pair            186
 max number of PS2 of shell pair           2028
 mem total for path MDJ                  752464
 -------------------------------------------------------
 Smallest overlap matrix eigenvalue = 9.12E-05
 Guess MOs from SCF MO coefficient file

 -----------------------------------------------------------------------
  General SCF calculation program by
  Eric Jon Sundstrom, Paul Horn, Yuezhi Mao, Dmitri Zuev, Alec White,
  David Stuck, Shaama M.S., Shane Yost, Joonho Lee, David Small,
  Daniel Levine, Susi Lehtola, Hugh Burton, Evgeny Epifanovsky
 -----------------------------------------------------------------------
 Exchange:     0.5000 Hartree-Fock + 0.5000 PTPSS-D3
 Correlation:  0.6250 PTPSS-D3
 Using Euler-Maclaurin-Lebedev (99,590) quadrature formula
 Dispersion:   Grimme D3
 using 8 threads for integral computing
 -------------------------------------------------------
 OpenMP Integral computing Module                
 Release: version 2.0, May 2017, Q-Chem Inc. Pleasanton 
 -------------------------------------------------------
 -------------------------------------------------------
 OpenMP BLAS3 based DFT computing Module                
 Release: version 1.0, May 2013, Q-Chem Inc. Pittsburgh 
 -------------------------------------------------------
 A restricted SCF calculation will be
 performed using GDM
 SCF converges when RMS gradient is below 1.0e-08
 ---------------------------------------
  Cycle       Energy        RMS Gradient
 ---------------------------------------
    1    -399.8563845357      1.48e-02   Normal BFGS step
    2    -399.8567745797      1.83e-03   Normal BFGS step
    3    -399.8568055786      2.47e-04   Normal BFGS step
    4    -399.8568066596      7.45e-05   Normal BFGS step
    5    -399.8568066958      7.50e-06   Normal BFGS step
    6    -399.8568066973      2.32e-06   Normal BFGS step
    7    -399.8568066974      7.81e-07   Normal BFGS step
    8    -399.8568066974      8.67e-08   Normal BFGS step
    9    -399.8568066974      1.48e-08   Normal BFGS step
   10    -399.8568066974      2.01e-09  Convergence criterion met
 ---------------------------------------
 SCF time:   CPU 3778.55s  wall 477.00s 
 SCF   energy in the final basis set =     -399.8568066974
 Total energy in the final basis set =     -399.8568066974
 
 Components of the MP2 correlation energy:
        aaaa  correlation energy =         0.0000000000 au
        abab  correlation energy =        -0.2394474563 au
        bbbb  correlation energy =         0.0000000000 au
        non-Brillouin singles    =        -0.0000000000 au

 Total  MP2   correlation energy =                    -0.23944746 au
        MP2         total energy =                  -400.09625415 au
 
 --------------------------------------------------------------
 
                    Orbital Energies (a.u.)
 --------------------------------------------------------------
 
 Alpha MOs
 -- Occupied --
-47.702 -47.700  -3.364  -3.362  -2.004  -2.004  -2.004  -2.001
 -2.001  -2.001  -0.241  -0.194
 -- Virtual --
 -0.017  -0.016  -0.016   0.014   0.014   0.020   0.024   0.024
  0.025   0.042   0.042   0.043   0.057   0.063   0.078   0.078
  0.093   0.093   0.097   0.105   0.105   0.110   0.110   0.114
  0.114   0.114   0.119   0.146   0.152   0.152   0.159   0.214
  0.233   0.233   0.238   0.238   0.247   0.247   0.264   0.271
  0.271   0.272   0.272   0.287   0.287   0.309   0.309   0.318
  0.326   0.326   0.326   0.332   0.332   0.336   0.336   0.339
  0.339   0.367   0.437   0.437   0.445   0.452   0.458   0.607
  0.630   0.630   0.638   0.638   0.657   0.657   0.660   0.661
  0.661   0.685   0.685   0.702   0.702   0.713   0.713   0.732
  0.732   0.739   0.739   0.741   0.741   0.742   0.742   0.764
  0.764   0.765   0.765   0.793   0.793   0.794   0.821   0.823
  0.823   0.834   0.868   0.868   0.882   0.882   0.955   0.971
  0.981   0.981   0.984   0.984   1.066   1.102   1.102   1.392
  1.500   1.500   1.512   1.512   1.515   1.515   1.554   1.573
  1.573   1.661   1.789   1.789   1.793   1.793   1.795   1.795
  1.798   1.798   1.808   1.808   1.812   1.812   1.824   1.824
  1.836   1.836   1.838   1.838   1.848   1.850   1.850   1.881
  1.881   1.903   1.910   1.910   1.914   1.914   1.946   1.962
  1.962   2.087   2.661   2.774   4.298   4.298   4.306   4.306
  4.309   4.309   4.346   4.359   4.359   4.449   4.779   4.779
  4.801   4.801   4.817   5.080   9.562   9.562   9.562   9.562
  9.565   9.565   9.566   9.566   9.572   9.572   9.583   9.595
  9.595   9.619  11.039  11.187  13.717  13.717  13.723  13.723
 13.725  13.725  13.754  13.759  13.759  13.823  22.344  22.344
 22.358  22.358  22.372  22.540  25.082  25.082  25.082  25.082
 25.082  25.082  25.083  25.083  25.083  25.084  25.084  25.084
 25.084  25.085  25.085  25.085  25.085  25.085  32.371  32.371
 32.372  32.372  32.374  32.374  32.374  32.374  32.377  32.377
 32.383  32.389  32.389  32.403  35.807  35.930  41.536  41.536
 41.541  41.541  41.542  41.542  41.564  41.566  41.566  41.610
 90.202  90.202  90.213  90.213  90.223  90.344 154.221 154.430
 --------------------------------------------------------------
 
          Ground-State Mulliken Net Atomic Charges

     Atom                 Charge (a.u.)
  ----------------------------------------
      1 Mg                   -0.003075
      2 Mg                    0.003075
  ----------------------------------------
  Sum of atomic charges =    -0.000000

 -----------------------------------------------------------------
                    Cartesian Multipole Moments
 -----------------------------------------------------------------
    Charge (ESU x 10^10)
                -0.0000
    Dipole Moment (Debye)
         X       0.0000      Y      -0.0000      Z       0.4327
       Tot       0.4327
    Quadrupole Moments (Debye-Ang)
        XX     -25.2634     XY       0.0000     YY     -25.2634
        XZ      -0.0000     YZ       0.0000     ZZ     -24.2863
    Octopole Moments (Debye-Ang^2)
       XXX       0.0000    XXY      -0.0000    XYY       0.0000
       YYY      -0.0000    XXZ     -48.4784    XYZ       0.0000
       YYZ     -48.4784    XZZ      -0.0000    YZZ       0.0000
       ZZZ    -140.2983
    Hexadecapole Moments (Debye-Ang^3)
      XXXX     -73.0880   XXXY       0.0000   XXYY     -24.3627
      XYYY       0.0000   YYYY     -73.0880   XXXZ       0.0000
      XXYZ      -0.0000   XYYZ       0.0000   YYYZ      -0.0000
      XXZZ    -215.7219   XYZZ       0.0000   YYZZ    -215.7219
      XZZZ      -0.0000   YZZZ       0.0000   ZZZZ   -1194.5372
 -----------------------------------------------------------------
Archival summary:
1\1\n0077.mhg0\SP\ProcedureUnspecified\BasisUnspecified\g2\yhljason\SatOct315:52:072020SatOct315:52:072020\0\\#,ProcedureUnspecified,BasisUnspecified,\\0,1\Mg\Mg,1,3.8905\\\@

 Total job time:  911.32s(wall), 7199.01s(cpu) 
 Sat Oct  3 15:52:07 2020

        *************************************************************
        *                                                           *
        *  Thank you very much for using Q-Chem.  Have a nice day.  *
        *                                                           *
        *************************************************************


