Q-Chem Developer Version!
                  Welcome to Q-Chem
     A Quantum Leap Into The Future Of Chemistry


 Q-Chem 5.1, Q-Chem, Inc., Pleasanton, CA (2018)

 Yihan Shao,  Zhengting Gan,  E. Epifanovsky,  A. T. B. Gilbert,  M. Wormit,  
 J. Kussmann,  A. W. Lange,  A. Behn,  Jia Deng,  Xintian Feng,  D. Ghosh,  
 M. Goldey,  P. R. Horn,  L. D. Jacobson,  I. Kaliman,  T. Kus,  A. Landau,  
 Jie Liu,  E. I. Proynov,  R. M. Richard,  R. P. Steele,  E. J. Sundstrom,  
 H. L. Woodcock III,  P. M. Zimmerman,  D. Zuev,  B. Albrecht,  E. Alguire,  
 S. A. Baeppler,  D. Barton,  Z. Benda,  Y. A. Bernard,  E. J. Berquist,  
 K. B. Bravaya,  H. Burton,  D. Casanova,  Chun-Min Chang,  Yunqing Chen,  
 A. Chien,  K. D. Closser,  M. P. Coons,  S. Coriani,  S. Dasgupta,  
 A. L. Dempwolff,  M. Diedenhofen,  Hainam Do,  R. G. Edgar,  Po-Tung Fang,  
 S. Faraji,  S. Fatehi,  Qingguo Feng,  K. D. Fenk,  J. Fosso-Tande,  
 Qinghui Ge,  A. Ghysels,  G. Gidofalvi,  J. Gomes,  J. Gonthier,  A. Gunina,  
 D. Hait,  M. W. D. Hanson-Heine,  P. H. P. Harbach,  A. W. Hauser,  
 J. E. Herr,  E. G. Hohenstein,  Z. C. Holden,  Kerwin Hui,  B. C. Huynh,  
 T.-C. Jagau,  Hyunjun Ji,  B. Kaduk,  K. Khistyaev,  Jaehoon Kim,  
 P. Klunzinger,  K. Koh,  D. Kosenkov,  L. Koulias,  T. Kowalczyk,  
 C. M. Krauter,  A. Kunitsa,  Ka Un Lao,  A. Laurent,  K. V. Lawler,  
 Joonho Lee,  D. Lefrancois,  S. Lehtola,  D. S. Levine,  Yi-Pei Li,  
 You-Sheng Lin,  Fenglai Liu,  E. Livshits,  A. Luenser,  P. Manohar,  
 E. Mansoor,  S. F. Manzer,  Shan-Ping Mao,  Yuezhi Mao,  N. Mardirossian,  
 A. V. Marenich,  T. Markovich,  L. A. Martinez-Martinez,  S. A. Maurer,  
 N. J. Mayhall,  S. C. McKenzie,  J.-M. Mewes,  A. F. Morrison,  
 J. W. Mullinax,  K. Nanda,  T. S. Nguyen-Beck,  R. Olivares-Amaya,  
 J. A. Parkhill,  T. M. Perrine,  F. Plasser,  P. Pokhilko,  S. Prager,  
 A. Prociuk,  E. Ramos,  D. R. Rehn,  F. Rob,  M. Schneider,  N. Sergueev,  
 S. M. Sharada,  S. Sharma,  D. W. Small,  T. Stauch,  T. Stein,  
 Yu-Chuan Su,  A. J. W. Thom,  A. Tkatchenko,  T. Tsuchimochi,  N. M. Tubman,  
 L. Vogt,  M. L. Vidal,  O. Vydrov,  M. A. Watson,  J. Wenzel,  
 M. de Wergifosse,  T. A. Wesolowski,  A. White,  J. Witte,  A. Yamada,  
 Jun Yang,  K. Yao,  S. Yeganeh,  S. R. Yost,  Zhi-Qiang You,  A. Zech,  
 Igor Ying Zhang,  Xing Zhang,  Yan Zhao,  Ying Zhu,  B. R. Brooks,  
 G. K. L. Chan,  C. J. Cramer,  M. S. Gordon,  W. J. Hehre,  A. Klamt,  
 M. W. Schmidt,  C. D. Sherrill,  D. G. Truhlar,  A. Aspuru-Guzik,  R. Baer,  
 A. T. Bell,  N. A. Besley,  Jeng-Da Chai,  A. E. DePrince, III,  
 R. A. DiStasio Jr.,  A. Dreuw,  B. D. Dunietz,  T. R. Furlani,  
 Chao-Ping Hsu,  Yousung Jung,  Jing Kong,  D. S. Lambrecht,  WanZhen Liang,  
 C. Ochsenfeld,  V. A. Rassolov,  L. V. Slipchenko,  J. E. Subotnik,  
 T. Van Voorhis,  J. M. Herbert,  A. I. Krylov,  P. M. W. Gill,  M. Head-Gordon

 Contributors to earlier versions of Q-Chem not listed above: 
 R. D. Adamson,  B. Austin,  J. Baker,  G. J. O. Beran,  K. Brandhorst,  
 S. T. Brown,  E. F. C. Byrd,  A. K. Chakraborty,  C.-L. Cheng,  
 Siu Hung Chien,  D. M. Chipman,  D. L. Crittenden,  H. Dachsel,  
 R. J. Doerksen,  A. D. Dutoi,  L. Fusti-Molnar,  W. A. Goddard III,  
 A. Golubeva-Zadorozhnaya,  S. R. Gwaltney,  G. Hawkins,  A. Heyden,  
 S. Hirata,  G. Kedziora,  F. J. Keil,  C. Kelley,  Jihan Kim,  R. A. King,  
 R. Z. Khaliullin,  P. P. Korambath,  W. Kurlancheek,  A. M. Lee,  M. S. Lee,  
 S. V. Levchenko,  Ching Yeh Lin,  D. Liotard,  R. C. Lochan,  I. Lotan,  
 P. E. Maslen,  N. Nair,  D. P. O'Neill,  D. Neuhauser,  E. Neuscamman,  
 C. M. Oana,  R. Olson,  B. Peters,  R. Peverati,  P. A. Pieniazek,  
 Y. M. Rhee,  J. Ritchie,  M. A. Rohrdanz,  E. Rosta,  N. J. Russ,  
 H. F. Schaefer III,  N. E. Schultz,  N. Shenvi,  A. C. Simmonett,  A. Sodt,  
 D. Stuck,  K. S. Thanthiriwatte,  V. Vanovschi,  Tao Wang,  A. Warshel,  
 C. F. Williams,  Q. Wu,  X. Xu,  W. Zhang

 Please cite Q-Chem as follows:
 Y. Shao et al., Mol. Phys. 113, 184-215 (2015)
 DOI: 10.1080/00268976.2014.952696

 Q-Chem 5.1.1 for Intel X86 EM64T Linux

 Parts of Q-Chem use Armadillo 8.300.2 (Tropical Shenanigans).
 http://arma.sourceforge.net/

 Q-Chem begins on Sat Oct  3 14:06:46 2020  

Host: n0071.mhg0
0

     Scratch files written to /local/scratch/users/yhljason/PH2_PTPSS-D3_aug-cc-pcVQZ.inp20201003135119//
Input Ideriv = 0
Curr. Ideriv = -1
Max.  Ideriv = 0
Input Ideriv = 1
Curr. Ideriv = 0
Max.  Ideriv = 0

Checking the input file for inconsistencies... 	...done.

--------------------------------------------------------------
User input:
--------------------------------------------------------------
$molecule
0 2
P1	0.0000	0.0000	0.0000
H2	0.0000	1.0229	0.9964
H3	0.0000	-1.0229	0.9964
$end

$rem
jobtype sp
method PTPSS-D3
xc_grid 000099000590
basis aug-cc-pcVQZ
max_scf_cycles 200
thresh 14
scf_convergence 8
scf_algorithm gdm
symmetry false
sym_ignore true
unrestricted false
gen_scfman true
internal_stability_iter 15
internal_stability_davidson_iter 200
mem_total 128000
cc_memory 96000
cc_backend xm
mem_static 1500
n_frozen_core 0
$end



--------------------------------------------------------------
 Adding empirical dispersion correction 
 ----------------------------------------------------------------
 Doing -D3(0) with
 s6  =   0.75000
 s8  =   0.87900
 rs6 =   1.54100
 rs8 =   1.00000
 -D3 energy without 3body term =     -0.0000380734 hartrees
 ----------------------------------------------------------------
             Standard Nuclear Orientation (Angstroms)
    I     Atom           X                Y                Z
 ----------------------------------------------------------------
    1      P       0.0000000000     0.0000000000     0.0000000000
    2      H       0.0000000000     1.0229000000     0.9964000000
    3      H       0.0000000000    -1.0229000000     0.9964000000
 ----------------------------------------------------------------
 Nuclear Repulsion Energy =    11.3759225039 hartrees
 There are        9 alpha and        8 beta electrons
 Requested basis set is aug-cc-pCVQZ
 There are 62 shells and 226 basis functions

 Total QAlloc Memory Limit 128000 MB
 Mega-Array Size      1467 MB
 MEM_STATIC part      1500 MB

                       Distance Matrix (Angstroms)
             P (  1)   H (  2)
   H (  2)  1.427984
   H (  3)  1.427984  2.045800
 
 A cutoff of  1.0D-14 yielded   1953 shell pairs
 There are     26129 function pairs (     41436 Cartesian)
 
 -------------------------------------------------------
 OpenMP Integral Computing Module                       
 Release: version 1.0, May 2013, Q-Chem Inc. Pittsburgh 
 -------------------------------------------------------
 Integral Job Info:
 Integral job number is                      11
 Integral operator is                         1
 short-range coefficients                     0
 long-range coefficients              100000000
 Omega coefficients                           0
 if combine SR and LR in K                    0
 Integral screening is                        0
 Integral computing path is                   2
 max size of driver memory is           3200000
 size of driver memory is               1704330
 size of scratch memory is             29435624
 max col of scratch BK array              50625
 max len of scratch array in speh3         2114
 max len of scratch index in speh4           50
 max int batch size is                      520
 min int batch size is                       52
 fixed nKL is                                22
 max L of basis functions is                  4
 order of int derivative is                   0
 number of shells is                         62
 number of basis is                         284
 number of cartesian basis is               284
 number of contracted shell pairs          1953
 number of primitive shell pairs           6866
 maxK2 (contraction) of shell pair          169
 max number of K2 of shell pair               1
 max number of CS2 of shell pair            227
 max number of PS2 of shell pair           1014
 mem total for path MDJ                  662152
 -------------------------------------------------------
 Smallest overlap matrix eigenvalue = 3.01E-05

 Scale SEOQF with 1.000000e-01/1.000000e-01/1.000000e-01

 Standard Electronic Orientation quadrupole field applied
 Guess from superposition of atomic densities
 Warning:  Energy on first SCF cycle will be non-variational
 SAD guess density has 17.000000 electrons

 -----------------------------------------------------------------------
  General SCF calculation program by
  Eric Jon Sundstrom, Paul Horn, Yuezhi Mao, Dmitri Zuev, Alec White,
  David Stuck, Shaama M.S., Shane Yost, Joonho Lee, David Small,
  Daniel Levine, Susi Lehtola, Hugh Burton, Evgeny Epifanovsky
 -----------------------------------------------------------------------
 Exchange:     0.5000 Hartree-Fock + 0.5000 PTPSS-D3
 Correlation:  0.6250 PTPSS-D3
 Using Euler-Maclaurin-Lebedev (99,590) quadrature formula
 Dispersion:   Grimme D3
Running Object-Oriented ROKS (ROHF)
ROHF occupied orbitals are orthonormal
ROHF occupied orbitals are orthogonal to virtual orbitals
ROHF virtual orbitals are orthonormal
We will preform up to 15 macro iterations over saddle points until a stable solution is found
Energy prior to optimization (guess energy) = -342.174666436786
Begin Timing: Total SCF Calculation
Begin Timing: SCF Single Stationary Point Calculation
begin iterations for algorithm: GDM          
the SCF tolerance is set to 1.00e-08
    1    -342.1746664368      2.63e-01     00000  Descent step
    2    -342.3011403126      5.54e-02     00000  Normal BFGS step
    3    -342.3193241817      1.06e-02     00000  Normal BFGS step
    4    -342.3197201051      1.79e-03     00000  Normal BFGS step
    5    -342.3197470134      5.42e-04     00000  Normal BFGS step
    6    -342.3197485780      1.29e-04     00000  Normal BFGS step
    7    -342.3197486714      4.21e-05     00000  Normal BFGS step
    8    -342.3197486776      6.36e-06     00000  Normal BFGS step
    9    -342.3197486779      1.40e-06     00000  Normal BFGS step
   10    -342.3197486779      3.37e-07     00000  Normal BFGS step
   11    -342.3197486779      6.70e-08     00000  Normal BFGS step
   12    -342.3197486779      7.43e-09     00000 Convergence criterion met
The disked orbital energies are calculated using alpha and beta Focks
Timing for Single Stationary Point: 260.00s (wall), 2062.86s (cpu)
Begin Timing: Stability
===================================================
Beginning Test for Internal Stability
===================================================
generating davidson guess vectors based on koopmans-like excitations
    1      2.82e-01     00000 Davidson Iteration
    2      1.68e-01     00000 Davidson Iteration
    3      1.35e-01     00000 Davidson Iteration
    4      4.36e-02     00000 Davidson Iteration
    5      6.53e-03     00000 Davidson Iteration
    6      1.99e-03     00000 Davidson Iteration
    7      4.44e-04     00000 Davidson Iteration
    8      6.93e-05     00000 Davidson Iteration
    9      9.53e-05     00000 Davidson Converged
converged_eigenvalues
   0.1832
   0.3699
Threshold for negative eigenvalues: -1.0e-05
solution was a local minimum (stable)
===================================================
End Test for Internal Stability
===================================================
Our SCF solution is stable!
The disked orbital energies are calculated using alpha and beta Focks
Timing for Total SCF: 571.00s (wall), 4532.76s (cpu)
 Total energy in the final basis set =     -342.3197486779
<S^2> =          0.750000000
    ==================================================
              The end of Object-Oriented SCFman       
    ==================================================
 
 Components of the MP2 correlation energy:
        aaaa  correlation energy =         0.0000000000 au
        abab  correlation energy =        -0.1697992005 au
        bbbb  correlation energy =         0.0000000000 au
        non-Brillouin singles    =        -0.0021519780 au

 Total  MP2   correlation energy =                    -0.17195118 au
        MP2         total energy =                  -342.49169986 au
 
 --------------------------------------------------------------
 
                    Orbital Energies (a.u.)
 --------------------------------------------------------------
 
 Alpha MOs
 -- Occupied --
-78.249  -6.941  -4.984  -4.974  -4.972  -0.724  -0.444  -0.364
 -0.299
 -- Virtual --
  0.009   0.037   0.046   0.050   0.054   0.089   0.100   0.112
  0.108   0.120   0.122   0.178   0.207   0.211   0.216   0.233
  0.235   0.237   0.253   0.319   0.309   0.348   0.354   0.347
  0.350   0.356   0.376   0.442   0.451   0.472   0.487   0.485
  0.494   0.495   0.591   0.609   0.632   0.665   0.676   0.680
  0.707   0.727   0.728   0.753   0.808   0.837   0.863   0.989
  0.976   1.003   1.012   1.041   1.081   1.097   1.080   1.088
  1.141   1.147   1.171   1.176   1.239   1.278   1.283   1.290
  1.314   1.321   1.330   1.377   1.379   1.444   1.512   1.577
  1.592   1.595   1.643   1.647   1.657   1.713   1.739   1.796
  1.843   1.891   1.966   1.993   2.002   2.011   2.029   2.085
  2.105   2.143   2.162   2.177   2.263   2.350   2.497   2.570
  2.581   2.596   2.618   2.690   2.734   2.772   2.778   2.835
  2.880   2.894   2.991   3.003   3.021   3.041   3.104   3.116
  3.189   3.216   3.240   3.278   3.343   3.369   3.407   3.436
  3.474   3.537   3.533   3.841   3.842   3.887   4.055   4.113
  4.197   4.300   4.372   4.754   5.369   5.588   6.481   6.488
  6.532   6.548   6.590   6.719   6.748   6.806   6.833   6.889
  6.969   7.028   7.141   7.282   7.378   7.798   7.804   8.221
  8.240   8.263   8.310   8.351   8.477   8.539   8.583   8.579
  8.598   8.721   8.963   9.054   9.075   9.080   9.194   9.198
  9.449   9.556  10.161  10.490  14.125  14.684  14.776  16.081
 16.170  16.199  16.214  16.308  16.648  16.672  23.548  27.009
 27.013  27.129  27.331  27.744  39.857  40.366  40.447  46.611
 46.611  46.614  46.615  46.617  46.617  46.618  46.625  46.625
 56.705  56.741  56.750  56.763  56.816  56.956  56.962  68.490
 79.766  79.769  79.853  79.965  80.279 124.916 125.320 125.384
326.751
 
 Beta MOs
 -- Occupied --
-78.244  -6.936  -4.963  -4.972  -4.970  -0.679  -0.433  -0.340
 -- Virtual --
 -0.060   0.013   0.039   0.050   0.052   0.063   0.094   0.105
  0.116   0.127   0.133   0.135   0.180   0.211   0.216   0.218
  0.237   0.243   0.247   0.256   0.325   0.339   0.355   0.361
  0.377   0.380   0.382   0.386   0.452   0.457   0.476   0.491
  0.497   0.499   0.503   0.601   0.614   0.634   0.672   0.683
  0.686   0.714   0.730   0.735   0.758   0.815   0.841   0.863
  0.994   1.007   1.024   1.035   1.048   1.083   1.101   1.103
  1.105   1.156   1.168   1.194   1.207   1.246   1.284   1.295
  1.301   1.316   1.328   1.334   1.383   1.387   1.453   1.515
  1.580   1.600   1.600   1.648   1.650   1.662   1.717   1.740
  1.797   1.847   1.890   1.969   1.997   2.002   2.012   2.037
  2.097   2.111   2.143   2.164   2.183   2.268   2.362   2.504
  2.576   2.587   2.609   2.628   2.700   2.741   2.792   2.794
  2.853   2.895   2.919   3.001   3.020   3.050   3.060   3.111
  3.131   3.198   3.226   3.265   3.302   3.369   3.391   3.429
  3.453   3.492   3.545   3.549   3.850   3.850   3.907   4.066
  4.124   4.214   4.311   4.384   4.777   5.380   5.598   6.478
  6.484   6.528   6.545   6.602   6.729   6.768   6.822   6.846
  6.907   6.994   7.054   7.163   7.304   7.399   7.809   7.813
  8.229   8.247   8.274   8.315   8.354   8.481   8.541   8.586
  8.597   8.613   8.732   8.983   9.070   9.090   9.101   9.212
  9.216   9.472   9.576  10.196  10.520  14.147  14.695  14.786
 16.086  16.176  16.206  16.221  16.314  16.654  16.677  23.556
 27.021  27.025  27.133  27.346  27.749  39.872  40.372  40.452
 46.614  46.615  46.618  46.618  46.620  46.620  46.621  46.626
 46.627  56.710  56.748  56.757  56.772  56.821  56.959  56.965
 68.497  79.775  79.778  79.856  79.976  80.282 124.924 125.323
125.387 326.754
 --------------------------------------------------------------
 
          Ground-State Mulliken Net Atomic Charges

     Atom                 Charge (a.u.)
  ----------------------------------------
      1 P                    -0.068670
      2 H                     0.034335
      3 H                     0.034335
  ----------------------------------------
  Sum of atomic charges =     0.000000

 -----------------------------------------------------------------
                    Cartesian Multipole Moments
 -----------------------------------------------------------------
    Charge (ESU x 10^10)
                 0.0000
    Dipole Moment (Debye)
         X       0.0000      Y       0.0000      Z       0.5742
       Tot       0.5742
    Quadrupole Moments (Debye-Ang)
        XX     -15.2154     XY       0.0000     YY     -14.0260
        XZ      -0.0000     YZ       0.0000     ZZ     -15.4301
    Octopole Moments (Debye-Ang^2)
       XXX       0.0000    XXY       0.0000    XYY       0.0000
       YYY       0.0000    XXZ      -1.4676    XYZ       0.0000
       YYZ      -1.4557    XZZ       0.0000    YZZ       0.0000
       ZZZ      -4.5577
    Hexadecapole Moments (Debye-Ang^3)
      XXXX     -23.7220   XXXY       0.0000   XXYY      -9.2989
      XYYY       0.0000   YYYY     -30.6231   XXXZ      -0.0000
      XXYZ      -0.0000   XYYZ      -0.0000   YYYZ       0.0000
      XXZZ      -9.9597   XYZZ       0.0000   YYZZ     -10.1308
      XZZZ      -0.0000   YZZZ       0.0000   ZZZZ     -35.1847
 -----------------------------------------------------------------
Archival summary:
1\1\n0071.mhg0\SP\ROProcedureUnspecified\BasisUnspecified\12(2)\yhljason\SatOct314:21:322020SatOct314:21:322020\0\\#,ROProcedureUnspecified,BasisUnspecified,\\0,2\P\H,1,1.42798\H,1,1.42798,2,91.5037\\\@

 Total job time:  886.75s(wall), 7040.06s(cpu) 
 Sat Oct  3 14:21:32 2020

        *************************************************************
        *                                                           *
        *  Thank you very much for using Q-Chem.  Have a nice day.  *
        *                                                           *
        *************************************************************


 
User input: 2 of 83 of 8 
 
Q-Chem Developer Version!
                  Welcome to Q-Chem
     A Quantum Leap Into The Future Of Chemistry


 Q-Chem 5.1, Q-Chem, Inc., Pleasanton, CA (2018)

 Yihan Shao,  Zhengting Gan,  E. Epifanovsky,  A. T. B. Gilbert,  M. Wormit,  
 J. Kussmann,  A. W. Lange,  A. Behn,  Jia Deng,  Xintian Feng,  D. Ghosh,  
 M. Goldey,  P. R. Horn,  L. D. Jacobson,  I. Kaliman,  T. Kus,  A. Landau,  
 Jie Liu,  E. I. Proynov,  R. M. Richard,  R. P. Steele,  E. J. Sundstrom,  
 H. L. Woodcock III,  P. M. Zimmerman,  D. Zuev,  B. Albrecht,  E. Alguire,  
 S. A. Baeppler,  D. Barton,  Z. Benda,  Y. A. Bernard,  E. J. Berquist,  
 K. B. Bravaya,  H. Burton,  D. Casanova,  Chun-Min Chang,  Yunqing Chen,  
 A. Chien,  K. D. Closser,  M. P. Coons,  S. Coriani,  S. Dasgupta,  
 A. L. Dempwolff,  M. Diedenhofen,  Hainam Do,  R. G. Edgar,  Po-Tung Fang,  
 S. Faraji,  S. Fatehi,  Qingguo Feng,  K. D. Fenk,  J. Fosso-Tande,  
 Qinghui Ge,  A. Ghysels,  G. Gidofalvi,  J. Gomes,  J. Gonthier,  A. Gunina,  
 D. Hait,  M. W. D. Hanson-Heine,  P. H. P. Harbach,  A. W. Hauser,  
 J. E. Herr,  E. G. Hohenstein,  Z. C. Holden,  Kerwin Hui,  B. C. Huynh,  
 T.-C. Jagau,  Hyunjun Ji,  B. Kaduk,  K. Khistyaev,  Jaehoon Kim,  
 P. Klunzinger,  K. Koh,  D. Kosenkov,  L. Koulias,  T. Kowalczyk,  
 C. M. Krauter,  A. Kunitsa,  Ka Un Lao,  A. Laurent,  K. V. Lawler,  
 Joonho Lee,  D. Lefrancois,  S. Lehtola,  D. S. Levine,  Yi-Pei Li,  
 You-Sheng Lin,  Fenglai Liu,  E. Livshits,  A. Luenser,  P. Manohar,  
 E. Mansoor,  S. F. Manzer,  Shan-Ping Mao,  Yuezhi Mao,  N. Mardirossian,  
 A. V. Marenich,  T. Markovich,  L. A. Martinez-Martinez,  S. A. Maurer,  
 N. J. Mayhall,  S. C. McKenzie,  J.-M. Mewes,  A. F. Morrison,  
 J. W. Mullinax,  K. Nanda,  T. S. Nguyen-Beck,  R. Olivares-Amaya,  
 J. A. Parkhill,  T. M. Perrine,  F. Plasser,  P. Pokhilko,  S. Prager,  
 A. Prociuk,  E. Ramos,  D. R. Rehn,  F. Rob,  M. Schneider,  N. Sergueev,  
 S. M. Sharada,  S. Sharma,  D. W. Small,  T. Stauch,  T. Stein,  
 Yu-Chuan Su,  A. J. W. Thom,  A. Tkatchenko,  T. Tsuchimochi,  N. M. Tubman,  
 L. Vogt,  M. L. Vidal,  O. Vydrov,  M. A. Watson,  J. Wenzel,  
 M. de Wergifosse,  T. A. Wesolowski,  A. White,  J. Witte,  A. Yamada,  
 Jun Yang,  K. Yao,  S. Yeganeh,  S. R. Yost,  Zhi-Qiang You,  A. Zech,  
 Igor Ying Zhang,  Xing Zhang,  Yan Zhao,  Ying Zhu,  B. R. Brooks,  
 G. K. L. Chan,  C. J. Cramer,  M. S. Gordon,  W. J. Hehre,  A. Klamt,  
 M. W. Schmidt,  C. D. Sherrill,  D. G. Truhlar,  A. Aspuru-Guzik,  R. Baer,  
 A. T. Bell,  N. A. Besley,  Jeng-Da Chai,  A. E. DePrince, III,  
 R. A. DiStasio Jr.,  A. Dreuw,  B. D. Dunietz,  T. R. Furlani,  
 Chao-Ping Hsu,  Yousung Jung,  Jing Kong,  D. S. Lambrecht,  WanZhen Liang,  
 C. Ochsenfeld,  V. A. Rassolov,  L. V. Slipchenko,  J. E. Subotnik,  
 T. Van Voorhis,  J. M. Herbert,  A. I. Krylov,  P. M. W. Gill,  M. Head-Gordon

 Contributors to earlier versions of Q-Chem not listed above: 
 R. D. Adamson,  B. Austin,  J. Baker,  G. J. O. Beran,  K. Brandhorst,  
 S. T. Brown,  E. F. C. Byrd,  A. K. Chakraborty,  C.-L. Cheng,  
 Siu Hung Chien,  D. M. Chipman,  D. L. Crittenden,  H. Dachsel,  
 R. J. Doerksen,  A. D. Dutoi,  L. Fusti-Molnar,  W. A. Goddard III,  
 A. Golubeva-Zadorozhnaya,  S. R. Gwaltney,  G. Hawkins,  A. Heyden,  
 S. Hirata,  G. Kedziora,  F. J. Keil,  C. Kelley,  Jihan Kim,  R. A. King,  
 R. Z. Khaliullin,  P. P. Korambath,  W. Kurlancheek,  A. M. Lee,  M. S. Lee,  
 S. V. Levchenko,  Ching Yeh Lin,  D. Liotard,  R. C. Lochan,  I. Lotan,  
 P. E. Maslen,  N. Nair,  D. P. O'Neill,  D. Neuhauser,  E. Neuscamman,  
 C. M. Oana,  R. Olson,  B. Peters,  R. Peverati,  P. A. Pieniazek,  
 Y. M. Rhee,  J. Ritchie,  M. A. Rohrdanz,  E. Rosta,  N. J. Russ,  
 H. F. Schaefer III,  N. E. Schultz,  N. Shenvi,  A. C. Simmonett,  A. Sodt,  
 D. Stuck,  K. S. Thanthiriwatte,  V. Vanovschi,  Tao Wang,  A. Warshel,  
 C. F. Williams,  Q. Wu,  X. Xu,  W. Zhang

 Please cite Q-Chem as follows:
 Y. Shao et al., Mol. Phys. 113, 184-215 (2015)
 DOI: 10.1080/00268976.2014.952696

 Q-Chem 5.1.1 for Intel X86 EM64T Linux

 Parts of Q-Chem use Armadillo 8.300.2 (Tropical Shenanigans).
 http://arma.sourceforge.net/

 Q-Chem begins on Sat Oct  3 14:21:50 2020  

Host: n0071.mhg0
0

     Scratch files written to /local/scratch/users/yhljason/PH2_PTPSS-D3_aug-cc-pcVQZ.inp20201003135119//
The previous job contains 0 fragments, simply inherited here
Input Ideriv = 0
Curr. Ideriv = -1
Max.  Ideriv = 0
Input Ideriv = 1
Curr. Ideriv = 0
Max.  Ideriv = 0

Checking the input file for inconsistencies... 	...done.

--------------------------------------------------------------
User input:
--------------------------------------------------------------
$molecule
read
$end

$rem

jobtype sp
method PTPSS-D3
xc_grid 000099000590
basis aug-cc-pcVQZ
max_scf_cycles 200
thresh 14
scf_convergence 8
mem_total 128000
cc_memory 96000
cc_backend xm
mem_static 1500
symmetry false
sym_ignore true
scf_guess read
unrestricted false
scf_algorithm gdm
n_frozen_core 0
$end

$multipole_field
XX 0.0001
$end


--------------------------------------------------------------
 Adding empirical dispersion correction 
 ----------------------------------------------------------------
 Doing -D3(0) with
 s6  =   0.75000
 s8  =   0.87900
 rs6 =   1.54100
 rs8 =   1.00000
 -D3 energy without 3body term =     -0.0000380734 hartrees
 ----------------------------------------------------------------
             Standard Nuclear Orientation (Angstroms)
    I     Atom           X                Y                Z
 ----------------------------------------------------------------
    1      P       0.0000000000     0.0000000000     0.0000000000
    2      H       0.0000000000     1.0229000000     0.9964000000
    3      H       0.0000000000    -1.0229000000     0.9964000000
 ----------------------------------------------------------------
 Nuclear Repulsion Energy =    11.3759225039 hartrees
 There are        9 alpha and        8 beta electrons
 Requested basis set is aug-cc-pCVQZ
 There are 62 shells and 226 basis functions

 Total QAlloc Memory Limit 128000 MB
 Mega-Array Size      1467 MB
 MEM_STATIC part      1500 MB

                       Distance Matrix (Angstroms)
             P (  1)   H (  2)
   H (  2)  1.427984
   H (  3)  1.427984  2.045800
 
 Applying Cartesian multipole field
    Component          Value
    ---------          -----
     (2,0,0)        1.00000E-04
 A cutoff of  1.0D-14 yielded   1953 shell pairs
 There are     26129 function pairs (     41436 Cartesian)
 
 -------------------------------------------------------
 OpenMP Integral Computing Module                       
 Release: version 1.0, May 2013, Q-Chem Inc. Pittsburgh 
 -------------------------------------------------------
 Integral Job Info:
 Integral job number is                      11
 Integral operator is                         1
 short-range coefficients                     0
 long-range coefficients              100000000
 Omega coefficients                           0
 if combine SR and LR in K                    0
 Integral screening is                        0
 Integral computing path is                   2
 max size of driver memory is           3200000
 size of driver memory is               1704330
 size of scratch memory is             29435624
 max col of scratch BK array              50625
 max len of scratch array in speh3         2114
 max len of scratch index in speh4           50
 max int batch size is                      520
 min int batch size is                       52
 fixed nKL is                                22
 max L of basis functions is                  4
 order of int derivative is                   0
 number of shells is                         62
 number of basis is                         284
 number of cartesian basis is               284
 number of contracted shell pairs          1953
 number of primitive shell pairs           6866
 maxK2 (contraction) of shell pair          169
 max number of K2 of shell pair               1
 max number of CS2 of shell pair            227
 max number of PS2 of shell pair           1014
 mem total for path MDJ                  662152
 -------------------------------------------------------
 Smallest overlap matrix eigenvalue = 3.01E-05
 Guess MOs from SCF MO coefficient file
 Reading MOs from coefficient file
 Reading MOs from coefficient file
 A restricted hybrid HF-DFT SCF calculation will be
 performed using Geometric Direct Minimization
 Exchange:     0.5000 Hartree-Fock + 0.5000 PTPSS-D3
 Correlation:  0.6250 PTPSS-D3
 Using Euler-Maclaurin-Lebedev (99,590) quadrature formula
 Dispersion:   Grimme D3
 SCF converges when RMS gradient is below 1.0E-08
Using Q-Chem read-in guess as SCF_GUESS READ specified.

 using 8 threads for integral computing
 -------------------------------------------------------
 OpenMP Integral computing Module                
 Release: version 2.0, May 2017, Q-Chem Inc. Pleasanton 
 -------------------------------------------------------
TIMEINFO->: J/JK contribution 129.06 sec.
 -------------------------------------------------------
 OpenMP BLAS3 based DFT computing Module                
 Release: version 1.0, May 2013, Q-Chem Inc. Pittsburgh 
 -------------------------------------------------------
 ---------------------------------------
  Cycle       Energy        RMS Gradient
 ---------------------------------------
    1    -342.3208799058      9.08E-04 Normal BFGS step
TIMEINFO->: J/JK contribution 114.56 sec.
    2    -342.3208805509      5.52E-04 Normal BFGS step
TIMEINFO->: J/JK contribution 120.31 sec.
    3    -342.3208806808      4.96E-05 Normal BFGS step
TIMEINFO->: J/JK contribution 121.35 sec.
    4    -342.3208806853      9.32E-06 Normal BFGS step
TIMEINFO->: J/JK contribution 110.61 sec.
    5    -342.3208806855      2.58E-06 Normal BFGS step
TIMEINFO->: J/JK contribution 123.93 sec.
    6    -342.3208806855      7.40E-07 Normal BFGS step
TIMEINFO->: J/JK contribution 112.46 sec.
    7    -342.3208806855      8.54E-08 Normal BFGS step
TIMEINFO->: J/JK contribution 103.33 sec.
    8    -342.3208806855      1.03E-08 Normal BFGS step
TIMEINFO->: J/JK contribution 112.60 sec.
   GDM::WARNING energy changes are now smaller than effective accuracy.
   GDM::        calculation will continue, but THRESH should be increased
   GDM::        or SCF_CONVERGENCE decreased.
   GDM::        effective_thresh =   9.000000000000000E-011
    9    -342.3208806855      2.23E-09 Convergence criterion met
 ---------------------------------------
 SCF time:  CPU 1475.72 s  wall 186.09 s
 SCF   energy in the final basis set = -342.32088069
 Total energy in the final basis set = -342.32088069
 
 Components of the MP2 correlation energy:
        aaaa  correlation energy =         0.0000000000 au
        abab  correlation energy =        -0.1697979243 au
        bbbb  correlation energy =         0.0000000000 au
        non-Brillouin singles    =        -0.0021500154 au

 Total  MP2   correlation energy =                    -0.17194794 au
        MP2         total energy =                  -342.49282863 au
 
 --------------------------------------------------------------
 
                    Orbital Energies (a.u.)
 --------------------------------------------------------------
 
 Alpha MOs
 -- Occupied --
-78.250  -6.941  -4.975  -4.973  -4.984  -0.724  -0.444  -0.365
 -0.300
 -- Virtual --
  0.007   0.036   0.045   0.048   0.050   0.085   0.099   0.101
  0.115   0.118   0.120   0.177   0.204   0.211   0.215   0.231
  0.232   0.236   0.252   0.308   0.318   0.347   0.350   0.346
  0.353   0.353   0.377   0.442   0.450   0.472   0.487   0.484
  0.494   0.494   0.589   0.609   0.632   0.664   0.675   0.679
  0.707   0.726   0.727   0.752   0.808   0.836   0.862   0.977
  0.989   1.002   1.011   1.041   1.080   1.080   1.089   1.096
  1.140   1.146   1.171   1.175   1.238   1.277   1.282   1.289
  1.312   1.321   1.329   1.377   1.378   1.444   1.511   1.576
  1.592   1.595   1.642   1.647   1.657   1.712   1.738   1.796
  1.842   1.891   1.965   1.993   2.002   2.010   2.028   2.084
  2.104   2.143   2.161   2.177   2.263   2.350   2.497   2.570
  2.581   2.596   2.617   2.689   2.734   2.772   2.777   2.834
  2.879   2.893   2.990   3.003   3.021   3.041   3.104   3.115
  3.189   3.215   3.240   3.279   3.343   3.369   3.407   3.436
  3.474   3.533   3.537   3.841   3.841   3.887   4.055   4.113
  4.197   4.300   4.371   4.754   5.369   5.588   6.481   6.488
  6.531   6.548   6.589   6.719   6.748   6.805   6.833   6.889
  6.969   7.028   7.141   7.281   7.378   7.798   7.804   8.220
  8.239   8.263   8.309   8.351   8.477   8.539   8.583   8.579
  8.598   8.721   8.963   9.054   9.074   9.079   9.194   9.198
  9.449   9.555  10.161  10.490  14.124  14.683  14.776  16.081
 16.170  16.199  16.213  16.308  16.648  16.671  23.548  27.009
 27.013  27.129  27.330  27.743  39.857  40.366  40.446  46.610
 46.611  46.614  46.614  46.616  46.616  46.617  46.624  46.625
 56.704  56.740  56.750  56.763  56.815  56.956  56.962  68.490
 79.766  79.769  79.853  79.964  80.279 124.915 125.320 125.384
326.751
 
 Beta MOs
 -- Occupied --
-78.245  -6.936  -4.972  -4.970  -4.963  -0.680  -0.433  -0.340
 -- Virtual --
 -0.061   0.011   0.037   0.050   0.051   0.059   0.094   0.104
  0.121   0.121   0.133   0.134   0.179   0.211   0.214   0.217
  0.235   0.241   0.246   0.255   0.338   0.325   0.354   0.363
  0.376   0.374   0.381   0.384   0.451   0.456   0.475   0.490
  0.496   0.498   0.502   0.600   0.614   0.634   0.671   0.682
  0.685   0.713   0.730   0.734   0.757   0.815   0.841   0.863
  1.005   0.993   1.024   1.034   1.048   1.083   1.102   1.104
  1.101   1.156   1.167   1.193   1.206   1.245   1.283   1.294
  1.300   1.316   1.327   1.334   1.383   1.386   1.453   1.515
  1.579   1.599   1.600   1.648   1.650   1.661   1.716   1.740
  1.796   1.847   1.890   1.969   1.996   2.002   2.011   2.036
  2.096   2.111   2.142   2.164   2.182   2.268   2.361   2.503
  2.576   2.586   2.609   2.628   2.700   2.741   2.791   2.794
  2.853   2.895   2.919   3.001   3.019   3.049   3.059   3.111
  3.130   3.198   3.226   3.264   3.301   3.368   3.390   3.429
  3.452   3.491   3.549   3.545   3.849   3.850   3.907   4.066
  4.124   4.214   4.311   4.384   4.777   5.379   5.598   6.477
  6.484   6.528   6.545   6.602   6.729   6.767   6.822   6.845
  6.907   6.994   7.053   7.163   7.304   7.398   7.809   7.812
  8.229   8.247   8.274   8.315   8.353   8.480   8.541   8.586
  8.596   8.613   8.732   8.982   9.070   9.090   9.101   9.212
  9.216   9.472   9.575  10.195  10.520  14.146  14.694  14.786
 16.085  16.175  16.205  16.221  16.314  16.653  16.677  23.556
 27.021  27.025  27.133  27.346  27.749  39.871  40.372  40.452
 46.614  46.614  46.618  46.618  46.620  46.619  46.620  46.626
 46.627  56.710  56.747  56.757  56.772  56.821  56.959  56.965
 68.496  79.774  79.777  79.856  79.975  80.282 124.924 125.323
125.387 326.754
 --------------------------------------------------------------
 
          Ground-State Mulliken Net Atomic Charges

     Atom                 Charge (a.u.)
  ----------------------------------------
      1 P                    -0.073138
      2 H                     0.036569
      3 H                     0.036569
  ----------------------------------------
  Sum of atomic charges =    -0.000000

 -----------------------------------------------------------------
                    Cartesian Multipole Moments
 -----------------------------------------------------------------
    Charge (ESU x 10^10)
                -0.0000
    Dipole Moment (Debye)
         X      -0.0000      Y      -0.0000      Z       0.5753
       Tot       0.5753
    Quadrupole Moments (Debye-Ang)
        XX     -15.2364     XY       0.0000     YY     -14.0271
        XZ      -0.0000     YZ      -0.0000     ZZ     -15.4314
    Octopole Moments (Debye-Ang^2)
       XXX       0.0000    XXY      -0.0000    XYY      -0.0000
       YYY      -0.0000    XXZ      -1.4669    XYZ       0.0000
       YYZ      -1.4535    XZZ      -0.0000    YZZ      -0.0000
       ZZZ      -4.5560
    Hexadecapole Moments (Debye-Ang^3)
      XXXX     -23.8464   XXXY       0.0000   XXYY      -9.3202
      XYYY       0.0000   YYYY     -30.6323   XXXZ      -0.0000
      XXYZ      -0.0000   XYYZ      -0.0000   YYYZ      -0.0000
      XXZZ      -9.9830   XYZZ       0.0000   YYZZ     -10.1329
      XZZZ      -0.0000   YZZZ      -0.0000   ZZZZ     -35.1973
 -----------------------------------------------------------------
Archival summary:
1\1\n0071.mhg0\SP\ROProcedureUnspecified\BasisUnspecified\12(2)\yhljason\SatOct314:30:102020SatOct314:30:102020\0\\#,ROProcedureUnspecified,BasisUnspecified,\\0,2\P\H,1,1.42798\H,1,1.42798,2,91.5037\\\@

 Total job time:  500.11s(wall), 3947.73s(cpu) 
 Sat Oct  3 14:30:10 2020

        *************************************************************
        *                                                           *
        *  Thank you very much for using Q-Chem.  Have a nice day.  *
        *                                                           *
        *************************************************************


 
User input: 4 of 8 
 
Q-Chem Developer Version!
                  Welcome to Q-Chem
     A Quantum Leap Into The Future Of Chemistry


 Q-Chem 5.1, Q-Chem, Inc., Pleasanton, CA (2018)

 Yihan Shao,  Zhengting Gan,  E. Epifanovsky,  A. T. B. Gilbert,  M. Wormit,  
 J. Kussmann,  A. W. Lange,  A. Behn,  Jia Deng,  Xintian Feng,  D. Ghosh,  
 M. Goldey,  P. R. Horn,  L. D. Jacobson,  I. Kaliman,  T. Kus,  A. Landau,  
 Jie Liu,  E. I. Proynov,  R. M. Richard,  R. P. Steele,  E. J. Sundstrom,  
 H. L. Woodcock III,  P. M. Zimmerman,  D. Zuev,  B. Albrecht,  E. Alguire,  
 S. A. Baeppler,  D. Barton,  Z. Benda,  Y. A. Bernard,  E. J. Berquist,  
 K. B. Bravaya,  H. Burton,  D. Casanova,  Chun-Min Chang,  Yunqing Chen,  
 A. Chien,  K. D. Closser,  M. P. Coons,  S. Coriani,  S. Dasgupta,  
 A. L. Dempwolff,  M. Diedenhofen,  Hainam Do,  R. G. Edgar,  Po-Tung Fang,  
 S. Faraji,  S. Fatehi,  Qingguo Feng,  K. D. Fenk,  J. Fosso-Tande,  
 Qinghui Ge,  A. Ghysels,  G. Gidofalvi,  J. Gomes,  J. Gonthier,  A. Gunina,  
 D. Hait,  M. W. D. Hanson-Heine,  P. H. P. Harbach,  A. W. Hauser,  
 J. E. Herr,  E. G. Hohenstein,  Z. C. Holden,  Kerwin Hui,  B. C. Huynh,  
 T.-C. Jagau,  Hyunjun Ji,  B. Kaduk,  K. Khistyaev,  Jaehoon Kim,  
 P. Klunzinger,  K. Koh,  D. Kosenkov,  L. Koulias,  T. Kowalczyk,  
 C. M. Krauter,  A. Kunitsa,  Ka Un Lao,  A. Laurent,  K. V. Lawler,  
 Joonho Lee,  D. Lefrancois,  S. Lehtola,  D. S. Levine,  Yi-Pei Li,  
 You-Sheng Lin,  Fenglai Liu,  E. Livshits,  A. Luenser,  P. Manohar,  
 E. Mansoor,  S. F. Manzer,  Shan-Ping Mao,  Yuezhi Mao,  N. Mardirossian,  
 A. V. Marenich,  T. Markovich,  L. A. Martinez-Martinez,  S. A. Maurer,  
 N. J. Mayhall,  S. C. McKenzie,  J.-M. Mewes,  A. F. Morrison,  
 J. W. Mullinax,  K. Nanda,  T. S. Nguyen-Beck,  R. Olivares-Amaya,  
 J. A. Parkhill,  T. M. Perrine,  F. Plasser,  P. Pokhilko,  S. Prager,  
 A. Prociuk,  E. Ramos,  D. R. Rehn,  F. Rob,  M. Schneider,  N. Sergueev,  
 S. M. Sharada,  S. Sharma,  D. W. Small,  T. Stauch,  T. Stein,  
 Yu-Chuan Su,  A. J. W. Thom,  A. Tkatchenko,  T. Tsuchimochi,  N. M. Tubman,  
 L. Vogt,  M. L. Vidal,  O. Vydrov,  M. A. Watson,  J. Wenzel,  
 M. de Wergifosse,  T. A. Wesolowski,  A. White,  J. Witte,  A. Yamada,  
 Jun Yang,  K. Yao,  S. Yeganeh,  S. R. Yost,  Zhi-Qiang You,  A. Zech,  
 Igor Ying Zhang,  Xing Zhang,  Yan Zhao,  Ying Zhu,  B. R. Brooks,  
 G. K. L. Chan,  C. J. Cramer,  M. S. Gordon,  W. J. Hehre,  A. Klamt,  
 M. W. Schmidt,  C. D. Sherrill,  D. G. Truhlar,  A. Aspuru-Guzik,  R. Baer,  
 A. T. Bell,  N. A. Besley,  Jeng-Da Chai,  A. E. DePrince, III,  
 R. A. DiStasio Jr.,  A. Dreuw,  B. D. Dunietz,  T. R. Furlani,  
 Chao-Ping Hsu,  Yousung Jung,  Jing Kong,  D. S. Lambrecht,  WanZhen Liang,  
 C. Ochsenfeld,  V. A. Rassolov,  L. V. Slipchenko,  J. E. Subotnik,  
 T. Van Voorhis,  J. M. Herbert,  A. I. Krylov,  P. M. W. Gill,  M. Head-Gordon

 Contributors to earlier versions of Q-Chem not listed above: 
 R. D. Adamson,  B. Austin,  J. Baker,  G. J. O. Beran,  K. Brandhorst,  
 S. T. Brown,  E. F. C. Byrd,  A. K. Chakraborty,  C.-L. Cheng,  
 Siu Hung Chien,  D. M. Chipman,  D. L. Crittenden,  H. Dachsel,  
 R. J. Doerksen,  A. D. Dutoi,  L. Fusti-Molnar,  W. A. Goddard III,  
 A. Golubeva-Zadorozhnaya,  S. R. Gwaltney,  G. Hawkins,  A. Heyden,  
 S. Hirata,  G. Kedziora,  F. J. Keil,  C. Kelley,  Jihan Kim,  R. A. King,  
 R. Z. Khaliullin,  P. P. Korambath,  W. Kurlancheek,  A. M. Lee,  M. S. Lee,  
 S. V. Levchenko,  Ching Yeh Lin,  D. Liotard,  R. C. Lochan,  I. Lotan,  
 P. E. Maslen,  N. Nair,  D. P. O'Neill,  D. Neuhauser,  E. Neuscamman,  
 C. M. Oana,  R. Olson,  B. Peters,  R. Peverati,  P. A. Pieniazek,  
 Y. M. Rhee,  J. Ritchie,  M. A. Rohrdanz,  E. Rosta,  N. J. Russ,  
 H. F. Schaefer III,  N. E. Schultz,  N. Shenvi,  A. C. Simmonett,  A. Sodt,  
 D. Stuck,  K. S. Thanthiriwatte,  V. Vanovschi,  Tao Wang,  A. Warshel,  
 C. F. Williams,  Q. Wu,  X. Xu,  W. Zhang

 Please cite Q-Chem as follows:
 Y. Shao et al., Mol. Phys. 113, 184-215 (2015)
 DOI: 10.1080/00268976.2014.952696

 Q-Chem 5.1.1 for Intel X86 EM64T Linux

 Parts of Q-Chem use Armadillo 8.300.2 (Tropical Shenanigans).
 http://arma.sourceforge.net/

 Q-Chem begins on Sat Oct  3 14:30:10 2020  

Host: n0071.mhg0
0

     Scratch files written to /local/scratch/users/yhljason/PH2_PTPSS-D3_aug-cc-pcVQZ.inp20201003135119//
The previous job contains 0 fragments, simply inherited here
Input Ideriv = 0
Curr. Ideriv = -1
Max.  Ideriv = 0
Input Ideriv = 1
Curr. Ideriv = 0
Max.  Ideriv = 0

Checking the input file for inconsistencies... 	...done.

--------------------------------------------------------------
User input:
--------------------------------------------------------------
$molecule
read
$end

$rem

jobtype sp
method PTPSS-D3
xc_grid 000099000590
basis aug-cc-pcVQZ
max_scf_cycles 200
thresh 14
scf_convergence 8
mem_total 128000
cc_memory 96000
cc_backend xm
mem_static 1500
symmetry false
sym_ignore true
scf_guess read
unrestricted false
scf_algorithm gdm
n_frozen_core 0
$end

$multipole_field
XX -0.0001
$end


--------------------------------------------------------------
 Adding empirical dispersion correction 
 ----------------------------------------------------------------
 Doing -D3(0) with
 s6  =   0.75000
 s8  =   0.87900
 rs6 =   1.54100
 rs8 =   1.00000
 -D3 energy without 3body term =     -0.0000380734 hartrees
 ----------------------------------------------------------------
             Standard Nuclear Orientation (Angstroms)
    I     Atom           X                Y                Z
 ----------------------------------------------------------------
    1      P       0.0000000000     0.0000000000     0.0000000000
    2      H       0.0000000000     1.0229000000     0.9964000000
    3      H       0.0000000000    -1.0229000000     0.9964000000
 ----------------------------------------------------------------
 Nuclear Repulsion Energy =    11.3759225039 hartrees
 There are        9 alpha and        8 beta electrons
 Requested basis set is aug-cc-pCVQZ
 There are 62 shells and 226 basis functions

 Total QAlloc Memory Limit 128000 MB
 Mega-Array Size      1467 MB
 MEM_STATIC part      1500 MB

                       Distance Matrix (Angstroms)
             P (  1)   H (  2)
   H (  2)  1.427984
   H (  3)  1.427984  2.045800
 
 Applying Cartesian multipole field
    Component          Value
    ---------          -----
     (2,0,0)       -1.00000E-04
 A cutoff of  1.0D-14 yielded   1953 shell pairs
 There are     26129 function pairs (     41436 Cartesian)
 
 -------------------------------------------------------
 OpenMP Integral Computing Module                       
 Release: version 1.0, May 2013, Q-Chem Inc. Pittsburgh 
 -------------------------------------------------------
 Integral Job Info:
 Integral job number is                      11
 Integral operator is                         1
 short-range coefficients                     0
 long-range coefficients              100000000
 Omega coefficients                           0
 if combine SR and LR in K                    0
 Integral screening is                        0
 Integral computing path is                   2
 max size of driver memory is           3200000
 size of driver memory is               1704330
 size of scratch memory is             29435624
 max col of scratch BK array              50625
 max len of scratch array in speh3         2114
 max len of scratch index in speh4           50
 max int batch size is                      520
 min int batch size is                       52
 fixed nKL is                                22
 max L of basis functions is                  4
 order of int derivative is                   0
 number of shells is                         62
 number of basis is                         284
 number of cartesian basis is               284
 number of contracted shell pairs          1953
 number of primitive shell pairs           6866
 maxK2 (contraction) of shell pair          169
 max number of K2 of shell pair               1
 max number of CS2 of shell pair            227
 max number of PS2 of shell pair           1014
 mem total for path MDJ                  662152
 -------------------------------------------------------
 Smallest overlap matrix eigenvalue = 3.01E-05
 Guess MOs from SCF MO coefficient file
 Reading MOs from coefficient file
 Reading MOs from coefficient file
 A restricted hybrid HF-DFT SCF calculation will be
 performed using Geometric Direct Minimization
 Exchange:     0.5000 Hartree-Fock + 0.5000 PTPSS-D3
 Correlation:  0.6250 PTPSS-D3
 Using Euler-Maclaurin-Lebedev (99,590) quadrature formula
 Dispersion:   Grimme D3
 SCF converges when RMS gradient is below 1.0E-08
Using Q-Chem read-in guess as SCF_GUESS READ specified.

 using 8 threads for integral computing
 -------------------------------------------------------
 OpenMP Integral computing Module                
 Release: version 2.0, May 2017, Q-Chem Inc. Pleasanton 
 -------------------------------------------------------
TIMEINFO->: J/JK contribution 117.00 sec.
 -------------------------------------------------------
 OpenMP BLAS3 based DFT computing Module                
 Release: version 1.0, May 2013, Q-Chem Inc. Pittsburgh 
 -------------------------------------------------------
 ---------------------------------------
  Cycle       Energy        RMS Gradient
 ---------------------------------------
    1    -342.3186151037      1.81E-03 Normal BFGS step
TIMEINFO->: J/JK contribution 112.26 sec.
    2    -342.3186177165      1.05E-03 Normal BFGS step
TIMEINFO->: J/JK contribution 132.56 sec.
    3    -342.3186182051      9.05E-05 Normal BFGS step
TIMEINFO->: J/JK contribution 115.17 sec.
    4    -342.3186182219      1.95E-05 Normal BFGS step
TIMEINFO->: J/JK contribution 111.89 sec.
    5    -342.3186182227      5.38E-06 Normal BFGS step
TIMEINFO->: J/JK contribution 109.53 sec.
    6    -342.3186182227      1.33E-06 Normal BFGS step
TIMEINFO->: J/JK contribution 122.11 sec.
    7    -342.3186182227      1.84E-07 Normal BFGS step
TIMEINFO->: J/JK contribution 119.56 sec.
    8    -342.3186182227      2.28E-08 Normal BFGS step
TIMEINFO->: J/JK contribution 102.23 sec.
    9    -342.3186182227      7.94E-09 Convergence criterion met
 ---------------------------------------
 SCF time:  CPU 1458.49 s  wall 184.06 s
 SCF   energy in the final basis set = -342.31861822
 Total energy in the final basis set = -342.31861822
 
 Components of the MP2 correlation energy:
        aaaa  correlation energy =         0.0000000000 au
        abab  correlation energy =        -0.1698004914 au
        bbbb  correlation energy =         0.0000000000 au
        non-Brillouin singles    =        -0.0021539122 au

 Total  MP2   correlation energy =                    -0.17195440 au
        MP2         total energy =                  -342.49057263 au
 
 --------------------------------------------------------------
 
                    Orbital Energies (a.u.)
 --------------------------------------------------------------
 
 Alpha MOs
 -- Occupied --
-78.249  -6.941  -4.974  -4.972  -4.984  -0.723  -0.444  -0.364
 -0.299
 -- Virtual --
  0.011   0.039   0.046   0.051   0.057   0.088   0.101   0.105
  0.116   0.121   0.123   0.179   0.206   0.212   0.217   0.234
  0.236   0.238   0.254   0.311   0.319   0.349   0.353   0.348
  0.355   0.355   0.379   0.444   0.452   0.473   0.488   0.487
  0.495   0.496   0.591   0.610   0.633   0.666   0.677   0.681
  0.708   0.727   0.729   0.754   0.809   0.837   0.863   0.978
  0.990   1.003   1.012   1.042   1.081   1.081   1.090   1.097
  1.141   1.147   1.172   1.177   1.239   1.278   1.283   1.290
  1.313   1.322   1.330   1.378   1.379   1.445   1.512   1.577
  1.593   1.595   1.644   1.648   1.657   1.713   1.739   1.796
  1.843   1.892   1.966   1.994   2.003   2.011   2.029   2.085
  2.105   2.144   2.162   2.177   2.264   2.351   2.497   2.570
  2.581   2.597   2.618   2.690   2.734   2.773   2.777   2.835
  2.880   2.894   2.991   3.003   3.022   3.042   3.104   3.116
  3.189   3.216   3.241   3.279   3.344   3.370   3.408   3.437
  3.475   3.534   3.538   3.841   3.842   3.888   4.055   4.113
  4.197   4.300   4.372   4.754   5.369   5.588   6.481   6.489
  6.532   6.548   6.590   6.719   6.749   6.806   6.833   6.889
  6.970   7.028   7.142   7.282   7.378   7.798   7.804   8.221
  8.240   8.264   8.310   8.351   8.477   8.539   8.583   8.580
  8.598   8.721   8.964   9.055   9.075   9.080   9.195   9.199
  9.450   9.556  10.161  10.490  14.125  14.684  14.777  16.081
 16.170  16.200  16.214  16.309  16.649  16.672  23.548  27.009
 27.013  27.129  27.331  27.744  39.857  40.367  40.447  46.611
 46.611  46.615  46.615  46.617  46.617  46.618  46.625  46.626
 56.705  56.741  56.751  56.764  56.816  56.957  56.962  68.491
 79.767  79.769  79.854  79.965  80.280 124.916 125.321 125.385
326.751
 
 Beta MOs
 -- Occupied --
-78.244  -6.935  -4.971  -4.969  -4.963  -0.679  -0.433  -0.340
 -- Virtual --
 -0.060   0.015   0.040   0.051   0.053   0.067   0.097   0.106
  0.122   0.124   0.135   0.137   0.181   0.212   0.216   0.219
  0.238   0.245   0.248   0.257   0.341   0.326   0.356   0.364
  0.377   0.378   0.383   0.386   0.452   0.458   0.476   0.491
  0.498   0.499   0.504   0.602   0.614   0.634   0.673   0.684
  0.687   0.714   0.731   0.735   0.758   0.816   0.841   0.864
  1.007   0.994   1.025   1.036   1.049   1.083   1.103   1.105
  1.102   1.157   1.168   1.194   1.208   1.246   1.284   1.295
  1.301   1.317   1.328   1.335   1.384   1.387   1.454   1.516
  1.580   1.601   1.601   1.649   1.651   1.662   1.717   1.741
  1.797   1.848   1.891   1.969   1.997   2.003   2.012   2.037
  2.097   2.112   2.143   2.165   2.183   2.268   2.362   2.504
  2.577   2.587   2.610   2.629   2.701   2.741   2.792   2.795
  2.853   2.896   2.919   3.002   3.020   3.050   3.060   3.112
  3.131   3.198   3.226   3.265   3.302   3.369   3.391   3.429
  3.453   3.492   3.549   3.545   3.850   3.850   3.908   4.066
  4.124   4.214   4.312   4.384   4.778   5.380   5.599   6.478
  6.485   6.528   6.545   6.602   6.730   6.768   6.823   6.846
  6.908   6.994   7.054   7.163   7.305   7.399   7.809   7.813
  8.230   8.248   8.274   8.315   8.354   8.481   8.541   8.587
  8.597   8.613   8.733   8.983   9.070   9.090   9.102   9.212
  9.216   9.473   9.576  10.196  10.520  14.147  14.695  14.787
 16.086  16.176  16.206  16.222  16.314  16.654  16.677  23.557
 27.022  27.026  27.133  27.347  27.749  39.872  40.373  40.453
 46.615  46.615  46.618  46.619  46.620  46.620  46.621  46.627
 46.627  56.711  56.748  56.758  56.772  56.822  56.960  56.965
 68.497  79.775  79.778  79.857  79.976  80.283 124.925 125.323
125.388 326.755
 --------------------------------------------------------------
 
          Ground-State Mulliken Net Atomic Charges

     Atom                 Charge (a.u.)
  ----------------------------------------
      1 P                    -0.064290
      2 H                     0.032145
      3 H                     0.032145
  ----------------------------------------
  Sum of atomic charges =    -0.000000

 -----------------------------------------------------------------
                    Cartesian Multipole Moments
 -----------------------------------------------------------------
    Charge (ESU x 10^10)
                -0.0000
    Dipole Moment (Debye)
         X      -0.0000      Y       0.0000      Z       0.5731
       Tot       0.5731
    Quadrupole Moments (Debye-Ang)
        XX     -15.1947     XY      -0.0000     YY     -14.0249
        XZ      -0.0000     YZ       0.0000     ZZ     -15.4289
    Octopole Moments (Debye-Ang^2)
       XXX       0.0000    XXY       0.0000    XYY       0.0000
       YYY       0.0000    XXZ      -1.4682    XYZ       0.0000
       YYZ      -1.4579    XZZ      -0.0000    YZZ       0.0000
       ZZZ      -4.5594
    Hexadecapole Moments (Debye-Ang^3)
      XXXX     -23.6006   XXXY       0.0000   XXYY      -9.2780
      XYYY       0.0000   YYYY     -30.6142   XXXZ      -0.0000
      XXYZ       0.0000   XYYZ       0.0000   YYYZ       0.0000
      XXZZ      -9.9370   XYZZ       0.0000   YYZZ     -10.1289
      XZZZ       0.0000   YZZZ       0.0000   ZZZZ     -35.1724
 -----------------------------------------------------------------
Archival summary:
1\1\n0071.mhg0\SP\ROProcedureUnspecified\BasisUnspecified\12(2)\yhljason\SatOct314:38:302020SatOct314:38:302020\0\\#,ROProcedureUnspecified,BasisUnspecified,\\0,2\P\H,1,1.42798\H,1,1.42798,2,91.5037\\\@

 Total job time:  499.43s(wall), 3940.94s(cpu) 
 Sat Oct  3 14:38:30 2020

        *************************************************************
        *                                                           *
        *  Thank you very much for using Q-Chem.  Have a nice day.  *
        *                                                           *
        *************************************************************


 
User input: 5 of 8 
 
Q-Chem Developer Version!
                  Welcome to Q-Chem
     A Quantum Leap Into The Future Of Chemistry


 Q-Chem 5.1, Q-Chem, Inc., Pleasanton, CA (2018)

 Yihan Shao,  Zhengting Gan,  E. Epifanovsky,  A. T. B. Gilbert,  M. Wormit,  
 J. Kussmann,  A. W. Lange,  A. Behn,  Jia Deng,  Xintian Feng,  D. Ghosh,  
 M. Goldey,  P. R. Horn,  L. D. Jacobson,  I. Kaliman,  T. Kus,  A. Landau,  
 Jie Liu,  E. I. Proynov,  R. M. Richard,  R. P. Steele,  E. J. Sundstrom,  
 H. L. Woodcock III,  P. M. Zimmerman,  D. Zuev,  B. Albrecht,  E. Alguire,  
 S. A. Baeppler,  D. Barton,  Z. Benda,  Y. A. Bernard,  E. J. Berquist,  
 K. B. Bravaya,  H. Burton,  D. Casanova,  Chun-Min Chang,  Yunqing Chen,  
 A. Chien,  K. D. Closser,  M. P. Coons,  S. Coriani,  S. Dasgupta,  
 A. L. Dempwolff,  M. Diedenhofen,  Hainam Do,  R. G. Edgar,  Po-Tung Fang,  
 S. Faraji,  S. Fatehi,  Qingguo Feng,  K. D. Fenk,  J. Fosso-Tande,  
 Qinghui Ge,  A. Ghysels,  G. Gidofalvi,  J. Gomes,  J. Gonthier,  A. Gunina,  
 D. Hait,  M. W. D. Hanson-Heine,  P. H. P. Harbach,  A. W. Hauser,  
 J. E. Herr,  E. G. Hohenstein,  Z. C. Holden,  Kerwin Hui,  B. C. Huynh,  
 T.-C. Jagau,  Hyunjun Ji,  B. Kaduk,  K. Khistyaev,  Jaehoon Kim,  
 P. Klunzinger,  K. Koh,  D. Kosenkov,  L. Koulias,  T. Kowalczyk,  
 C. M. Krauter,  A. Kunitsa,  Ka Un Lao,  A. Laurent,  K. V. Lawler,  
 Joonho Lee,  D. Lefrancois,  S. Lehtola,  D. S. Levine,  Yi-Pei Li,  
 You-Sheng Lin,  Fenglai Liu,  E. Livshits,  A. Luenser,  P. Manohar,  
 E. Mansoor,  S. F. Manzer,  Shan-Ping Mao,  Yuezhi Mao,  N. Mardirossian,  
 A. V. Marenich,  T. Markovich,  L. A. Martinez-Martinez,  S. A. Maurer,  
 N. J. Mayhall,  S. C. McKenzie,  J.-M. Mewes,  A. F. Morrison,  
 J. W. Mullinax,  K. Nanda,  T. S. Nguyen-Beck,  R. Olivares-Amaya,  
 J. A. Parkhill,  T. M. Perrine,  F. Plasser,  P. Pokhilko,  S. Prager,  
 A. Prociuk,  E. Ramos,  D. R. Rehn,  F. Rob,  M. Schneider,  N. Sergueev,  
 S. M. Sharada,  S. Sharma,  D. W. Small,  T. Stauch,  T. Stein,  
 Yu-Chuan Su,  A. J. W. Thom,  A. Tkatchenko,  T. Tsuchimochi,  N. M. Tubman,  
 L. Vogt,  M. L. Vidal,  O. Vydrov,  M. A. Watson,  J. Wenzel,  
 M. de Wergifosse,  T. A. Wesolowski,  A. White,  J. Witte,  A. Yamada,  
 Jun Yang,  K. Yao,  S. Yeganeh,  S. R. Yost,  Zhi-Qiang You,  A. Zech,  
 Igor Ying Zhang,  Xing Zhang,  Yan Zhao,  Ying Zhu,  B. R. Brooks,  
 G. K. L. Chan,  C. J. Cramer,  M. S. Gordon,  W. J. Hehre,  A. Klamt,  
 M. W. Schmidt,  C. D. Sherrill,  D. G. Truhlar,  A. Aspuru-Guzik,  R. Baer,  
 A. T. Bell,  N. A. Besley,  Jeng-Da Chai,  A. E. DePrince, III,  
 R. A. DiStasio Jr.,  A. Dreuw,  B. D. Dunietz,  T. R. Furlani,  
 Chao-Ping Hsu,  Yousung Jung,  Jing Kong,  D. S. Lambrecht,  WanZhen Liang,  
 C. Ochsenfeld,  V. A. Rassolov,  L. V. Slipchenko,  J. E. Subotnik,  
 T. Van Voorhis,  J. M. Herbert,  A. I. Krylov,  P. M. W. Gill,  M. Head-Gordon

 Contributors to earlier versions of Q-Chem not listed above: 
 R. D. Adamson,  B. Austin,  J. Baker,  G. J. O. Beran,  K. Brandhorst,  
 S. T. Brown,  E. F. C. Byrd,  A. K. Chakraborty,  C.-L. Cheng,  
 Siu Hung Chien,  D. M. Chipman,  D. L. Crittenden,  H. Dachsel,  
 R. J. Doerksen,  A. D. Dutoi,  L. Fusti-Molnar,  W. A. Goddard III,  
 A. Golubeva-Zadorozhnaya,  S. R. Gwaltney,  G. Hawkins,  A. Heyden,  
 S. Hirata,  G. Kedziora,  F. J. Keil,  C. Kelley,  Jihan Kim,  R. A. King,  
 R. Z. Khaliullin,  P. P. Korambath,  W. Kurlancheek,  A. M. Lee,  M. S. Lee,  
 S. V. Levchenko,  Ching Yeh Lin,  D. Liotard,  R. C. Lochan,  I. Lotan,  
 P. E. Maslen,  N. Nair,  D. P. O'Neill,  D. Neuhauser,  E. Neuscamman,  
 C. M. Oana,  R. Olson,  B. Peters,  R. Peverati,  P. A. Pieniazek,  
 Y. M. Rhee,  J. Ritchie,  M. A. Rohrdanz,  E. Rosta,  N. J. Russ,  
 H. F. Schaefer III,  N. E. Schultz,  N. Shenvi,  A. C. Simmonett,  A. Sodt,  
 D. Stuck,  K. S. Thanthiriwatte,  V. Vanovschi,  Tao Wang,  A. Warshel,  
 C. F. Williams,  Q. Wu,  X. Xu,  W. Zhang

 Please cite Q-Chem as follows:
 Y. Shao et al., Mol. Phys. 113, 184-215 (2015)
 DOI: 10.1080/00268976.2014.952696

 Q-Chem 5.1.1 for Intel X86 EM64T Linux

 Parts of Q-Chem use Armadillo 8.300.2 (Tropical Shenanigans).
 http://arma.sourceforge.net/

 Q-Chem begins on Sat Oct  3 14:38:30 2020  

Host: n0071.mhg0
0

     Scratch files written to /local/scratch/users/yhljason/PH2_PTPSS-D3_aug-cc-pcVQZ.inp20201003135119//
The previous job contains 0 fragments, simply inherited here
Input Ideriv = 0
Curr. Ideriv = -1
Max.  Ideriv = 0
Input Ideriv = 1
Curr. Ideriv = 0
Max.  Ideriv = 0

Checking the input file for inconsistencies... 	...done.

--------------------------------------------------------------
User input:
--------------------------------------------------------------
$molecule
read
$end

$rem

jobtype sp
method PTPSS-D3
xc_grid 000099000590
basis aug-cc-pcVQZ
max_scf_cycles 200
thresh 14
scf_convergence 8
mem_total 128000
cc_memory 96000
cc_backend xm
mem_static 1500
symmetry false
sym_ignore true
scf_guess read
unrestricted false
scf_algorithm gdm
n_frozen_core 0
$end

$multipole_field
YY 0.0001
$end


--------------------------------------------------------------
 Adding empirical dispersion correction 
 ----------------------------------------------------------------
 Doing -D3(0) with
 s6  =   0.75000
 s8  =   0.87900
 rs6 =   1.54100
 rs8 =   1.00000
 -D3 energy without 3body term =     -0.0000380734 hartrees
 ----------------------------------------------------------------
             Standard Nuclear Orientation (Angstroms)
    I     Atom           X                Y                Z
 ----------------------------------------------------------------
    1      P       0.0000000000     0.0000000000     0.0000000000
    2      H       0.0000000000     1.0229000000     0.9964000000
    3      H       0.0000000000    -1.0229000000     0.9964000000
 ----------------------------------------------------------------
 Nuclear Repulsion Energy =    11.3759225039 hartrees
 There are        9 alpha and        8 beta electrons
 Requested basis set is aug-cc-pCVQZ
 There are 62 shells and 226 basis functions

 Total QAlloc Memory Limit 128000 MB
 Mega-Array Size      1467 MB
 MEM_STATIC part      1500 MB

                       Distance Matrix (Angstroms)
             P (  1)   H (  2)
   H (  2)  1.427984
   H (  3)  1.427984  2.045800
 
 Applying Cartesian multipole field
    Component          Value
    ---------          -----
     (0,2,0)        1.00000E-04
 Nucleus-field energy     =     0.0007472985 hartrees
 A cutoff of  1.0D-14 yielded   1953 shell pairs
 There are     26129 function pairs (     41436 Cartesian)
 
 -------------------------------------------------------
 OpenMP Integral Computing Module                       
 Release: version 1.0, May 2013, Q-Chem Inc. Pittsburgh 
 -------------------------------------------------------
 Integral Job Info:
 Integral job number is                      11
 Integral operator is                         1
 short-range coefficients                     0
 long-range coefficients              100000000
 Omega coefficients                           0
 if combine SR and LR in K                    0
 Integral screening is                        0
 Integral computing path is                   2
 max size of driver memory is           3200000
 size of driver memory is               1704330
 size of scratch memory is             29435624
 max col of scratch BK array              50625
 max len of scratch array in speh3         2114
 max len of scratch index in speh4           50
 max int batch size is                      520
 min int batch size is                       52
 fixed nKL is                                22
 max L of basis functions is                  4
 order of int derivative is                   0
 number of shells is                         62
 number of basis is                         284
 number of cartesian basis is               284
 number of contracted shell pairs          1953
 number of primitive shell pairs           6866
 maxK2 (contraction) of shell pair          169
 max number of K2 of shell pair               1
 max number of CS2 of shell pair            227
 max number of PS2 of shell pair           1014
 mem total for path MDJ                  662152
 -------------------------------------------------------
 Smallest overlap matrix eigenvalue = 3.01E-05
 Guess MOs from SCF MO coefficient file
 Reading MOs from coefficient file
 Reading MOs from coefficient file
 A restricted hybrid HF-DFT SCF calculation will be
 performed using Geometric Direct Minimization
 Exchange:     0.5000 Hartree-Fock + 0.5000 PTPSS-D3
 Correlation:  0.6250 PTPSS-D3
 Using Euler-Maclaurin-Lebedev (99,590) quadrature formula
 Dispersion:   Grimme D3
 SCF converges when RMS gradient is below 1.0E-08
Using Q-Chem read-in guess as SCF_GUESS READ specified.

 using 8 threads for integral computing
 -------------------------------------------------------
 OpenMP Integral computing Module                
 Release: version 2.0, May 2017, Q-Chem Inc. Pleasanton 
 -------------------------------------------------------
TIMEINFO->: J/JK contribution 116.79 sec.
 -------------------------------------------------------
 OpenMP BLAS3 based DFT computing Module                
 Release: version 1.0, May 2013, Q-Chem Inc. Pittsburgh 
 -------------------------------------------------------
 ---------------------------------------
  Cycle       Energy        RMS Gradient
 ---------------------------------------
    1    -342.3207906221      1.18E-03 Normal BFGS step
TIMEINFO->: J/JK contribution 133.26 sec.
    2    -342.3207919387      8.32E-04 Normal BFGS step
TIMEINFO->: J/JK contribution 117.55 sec.
    3    -342.3207923202      5.17E-05 Normal BFGS step
TIMEINFO->: J/JK contribution 113.69 sec.
    4    -342.3207923259      1.48E-05 Normal BFGS step
TIMEINFO->: J/JK contribution 111.36 sec.
    5    -342.3207923265      3.13E-06 Normal BFGS step
TIMEINFO->: J/JK contribution 115.29 sec.
    6    -342.3207923265      8.69E-07 Normal BFGS step
TIMEINFO->: J/JK contribution 126.92 sec.
    7    -342.3207923265      1.21E-07 Normal BFGS step
TIMEINFO->: J/JK contribution 110.28 sec.
    8    -342.3207923265      3.88E-08 Normal BFGS step
TIMEINFO->: J/JK contribution 101.58 sec.
    9    -342.3207923265      1.90E-09 Convergence criterion met
 ---------------------------------------
 SCF time:  CPU 1483.79 s  wall 187.04 s
 SCF   energy in the final basis set = -342.32079233
 Total energy in the final basis set = -342.32079233
 
 Components of the MP2 correlation energy:
        aaaa  correlation energy =         0.0000000000 au
        abab  correlation energy =        -0.1697973866 au
        bbbb  correlation energy =         0.0000000000 au
        non-Brillouin singles    =        -0.0021513221 au

 Total  MP2   correlation energy =                    -0.17194871 au
        MP2         total energy =                  -342.49274104 au
 
 --------------------------------------------------------------
 
                    Orbital Energies (a.u.)
 --------------------------------------------------------------
 
 Alpha MOs
 -- Occupied --
-78.250  -6.942  -4.975  -4.973  -4.984  -0.724  -0.445  -0.365
 -0.300
 -- Virtual --
  0.007   0.033   0.044   0.048   0.052   0.084   0.097   0.102
  0.114   0.118   0.121   0.175   0.204   0.210   0.214   0.231
  0.233   0.236   0.251   0.309   0.317   0.346   0.351   0.346
  0.353   0.353   0.377   0.442   0.449   0.471   0.486   0.485
  0.494   0.494   0.589   0.608   0.631   0.664   0.675   0.679
  0.706   0.726   0.728   0.752   0.807   0.836   0.862   0.977
  0.988   1.002   1.011   1.041   1.079   1.079   1.089   1.096
  1.140   1.146   1.171   1.176   1.238   1.277   1.282   1.289
  1.312   1.321   1.329   1.377   1.378   1.443   1.511   1.576
  1.591   1.594   1.642   1.646   1.656   1.712   1.738   1.795
  1.842   1.891   1.965   1.993   2.002   2.010   2.028   2.084
  2.104   2.142   2.161   2.176   2.263   2.350   2.497   2.570
  2.580   2.596   2.617   2.689   2.734   2.772   2.776   2.834
  2.879   2.893   2.990   3.002   3.021   3.041   3.104   3.115
  3.188   3.215   3.240   3.278   3.343   3.369   3.407   3.436
  3.474   3.533   3.537   3.841   3.841   3.887   4.054   4.112
  4.196   4.299   4.371   4.754   5.369   5.588   6.480   6.488
  6.531   6.548   6.589   6.718   6.748   6.805   6.832   6.888
  6.969   7.028   7.141   7.281   7.377   7.797   7.804   8.220
  8.239   8.263   8.309   8.350   8.477   8.539   8.582   8.579
  8.598   8.720   8.963   9.054   9.074   9.079   9.194   9.198
  9.449   9.555  10.161  10.490  14.124  14.683  14.776  16.081
 16.170  16.199  16.213  16.308  16.648  16.671  23.548  27.009
 27.013  27.129  27.330  27.743  39.857  40.366  40.446  46.610
 46.611  46.614  46.614  46.616  46.616  46.617  46.624  46.625
 56.704  56.740  56.750  56.763  56.815  56.956  56.962  68.490
 79.766  79.769  79.853  79.964  80.279 124.915 125.320 125.384
326.750
 
 Beta MOs
 -- Occupied --
-78.245  -6.936  -4.972  -4.970  -4.963  -0.680  -0.434  -0.340
 -- Virtual --
 -0.061   0.010   0.034   0.049   0.051   0.062   0.093   0.102
  0.120   0.122   0.133   0.135   0.177   0.209   0.214   0.216
  0.235   0.242   0.246   0.254   0.339   0.324   0.353   0.363
  0.376   0.375   0.382   0.384   0.450   0.456   0.475   0.489
  0.496   0.498   0.502   0.600   0.613   0.633   0.671   0.682
  0.685   0.713   0.729   0.734   0.756   0.814   0.840   0.862
  1.005   0.992   1.024   1.035   1.048   1.082   1.102   1.104
  1.101   1.156   1.167   1.193   1.207   1.245   1.283   1.294
  1.300   1.316   1.327   1.334   1.383   1.386   1.452   1.514
  1.579   1.599   1.600   1.648   1.649   1.661   1.716   1.740
  1.796   1.847   1.890   1.968   1.996   2.002   2.011   2.036
  2.096   2.111   2.142   2.164   2.182   2.267   2.361   2.503
  2.576   2.586   2.609   2.628   2.700   2.741   2.791   2.794
  2.853   2.895   2.919   3.001   3.019   3.049   3.059   3.111
  3.130   3.197   3.225   3.264   3.301   3.368   3.390   3.428
  3.452   3.491   3.548   3.544   3.849   3.850   3.907   4.065
  4.123   4.213   4.311   4.384   4.777   5.379   5.598   6.477
  6.484   6.527   6.544   6.601   6.729   6.767   6.822   6.845
  6.907   6.994   7.053   7.163   7.304   7.398   7.809   7.812
  8.229   8.247   8.273   8.314   8.353   8.480   8.540   8.586
  8.596   8.613   8.732   8.982   9.069   9.090   9.101   9.212
  9.215   9.472   9.575  10.195  10.520  14.146  14.694  14.786
 16.085  16.175  16.205  16.221  16.313  16.653  16.677  23.556
 27.021  27.025  27.133  27.346  27.749  39.871  40.372  40.452
 46.614  46.614  46.618  46.618  46.619  46.619  46.620  46.626
 46.627  56.710  56.747  56.757  56.771  56.821  56.959  56.965
 68.496  79.774  79.777  79.856  79.975  80.282 124.924 125.322
125.387 326.754
 --------------------------------------------------------------
 
          Ground-State Mulliken Net Atomic Charges

     Atom                 Charge (a.u.)
  ----------------------------------------
      1 P                    -0.067312
      2 H                     0.033656
      3 H                     0.033656
  ----------------------------------------
  Sum of atomic charges =    -0.000000

 -----------------------------------------------------------------
                    Cartesian Multipole Moments
 -----------------------------------------------------------------
    Charge (ESU x 10^10)
                -0.0000
    Dipole Moment (Debye)
         X      -0.0000      Y       0.0000      Z       0.5717
       Tot       0.5717
    Quadrupole Moments (Debye-Ang)
        XX     -15.2165     XY       0.0000     YY     -14.0489
        XZ       0.0000     YZ       0.0000     ZZ     -15.4330
    Octopole Moments (Debye-Ang^2)
       XXX      -0.0000    XXY       0.0000    XYY       0.0000
       YYY       0.0000    XXZ      -1.4692    XYZ       0.0000
       YYZ      -1.4701    XZZ      -0.0000    YZZ       0.0000
       ZZZ      -4.5657
    Hexadecapole Moments (Debye-Ang^3)
      XXXX     -23.7303   XXXY       0.0000   XXYY      -9.3166
      XYYY       0.0000   YYYY     -30.7381   XXXZ       0.0000
      XXYZ       0.0000   XYYZ       0.0000   YYYZ       0.0000
      XXZZ      -9.9637   XYZZ       0.0000   YYZZ     -10.1626
      XZZZ       0.0000   YZZZ       0.0000   ZZZZ     -35.2016
 -----------------------------------------------------------------
Archival summary:
1\1\n0071.mhg0\SP\ROProcedureUnspecified\BasisUnspecified\12(2)\yhljason\SatOct314:46:522020SatOct314:46:522020\0\\#,ROProcedureUnspecified,BasisUnspecified,\\0,2\P\H,1,1.42798\H,1,1.42798,2,91.5037\\\@

 Total job time:  502.17s(wall), 3965.00s(cpu) 
 Sat Oct  3 14:46:52 2020

        *************************************************************
        *                                                           *
        *  Thank you very much for using Q-Chem.  Have a nice day.  *
        *                                                           *
        *************************************************************


 
User input: 6 of 8 
 
Q-Chem Developer Version!
                  Welcome to Q-Chem
     A Quantum Leap Into The Future Of Chemistry


 Q-Chem 5.1, Q-Chem, Inc., Pleasanton, CA (2018)

 Yihan Shao,  Zhengting Gan,  E. Epifanovsky,  A. T. B. Gilbert,  M. Wormit,  
 J. Kussmann,  A. W. Lange,  A. Behn,  Jia Deng,  Xintian Feng,  D. Ghosh,  
 M. Goldey,  P. R. Horn,  L. D. Jacobson,  I. Kaliman,  T. Kus,  A. Landau,  
 Jie Liu,  E. I. Proynov,  R. M. Richard,  R. P. Steele,  E. J. Sundstrom,  
 H. L. Woodcock III,  P. M. Zimmerman,  D. Zuev,  B. Albrecht,  E. Alguire,  
 S. A. Baeppler,  D. Barton,  Z. Benda,  Y. A. Bernard,  E. J. Berquist,  
 K. B. Bravaya,  H. Burton,  D. Casanova,  Chun-Min Chang,  Yunqing Chen,  
 A. Chien,  K. D. Closser,  M. P. Coons,  S. Coriani,  S. Dasgupta,  
 A. L. Dempwolff,  M. Diedenhofen,  Hainam Do,  R. G. Edgar,  Po-Tung Fang,  
 S. Faraji,  S. Fatehi,  Qingguo Feng,  K. D. Fenk,  J. Fosso-Tande,  
 Qinghui Ge,  A. Ghysels,  G. Gidofalvi,  J. Gomes,  J. Gonthier,  A. Gunina,  
 D. Hait,  M. W. D. Hanson-Heine,  P. H. P. Harbach,  A. W. Hauser,  
 J. E. Herr,  E. G. Hohenstein,  Z. C. Holden,  Kerwin Hui,  B. C. Huynh,  
 T.-C. Jagau,  Hyunjun Ji,  B. Kaduk,  K. Khistyaev,  Jaehoon Kim,  
 P. Klunzinger,  K. Koh,  D. Kosenkov,  L. Koulias,  T. Kowalczyk,  
 C. M. Krauter,  A. Kunitsa,  Ka Un Lao,  A. Laurent,  K. V. Lawler,  
 Joonho Lee,  D. Lefrancois,  S. Lehtola,  D. S. Levine,  Yi-Pei Li,  
 You-Sheng Lin,  Fenglai Liu,  E. Livshits,  A. Luenser,  P. Manohar,  
 E. Mansoor,  S. F. Manzer,  Shan-Ping Mao,  Yuezhi Mao,  N. Mardirossian,  
 A. V. Marenich,  T. Markovich,  L. A. Martinez-Martinez,  S. A. Maurer,  
 N. J. Mayhall,  S. C. McKenzie,  J.-M. Mewes,  A. F. Morrison,  
 J. W. Mullinax,  K. Nanda,  T. S. Nguyen-Beck,  R. Olivares-Amaya,  
 J. A. Parkhill,  T. M. Perrine,  F. Plasser,  P. Pokhilko,  S. Prager,  
 A. Prociuk,  E. Ramos,  D. R. Rehn,  F. Rob,  M. Schneider,  N. Sergueev,  
 S. M. Sharada,  S. Sharma,  D. W. Small,  T. Stauch,  T. Stein,  
 Yu-Chuan Su,  A. J. W. Thom,  A. Tkatchenko,  T. Tsuchimochi,  N. M. Tubman,  
 L. Vogt,  M. L. Vidal,  O. Vydrov,  M. A. Watson,  J. Wenzel,  
 M. de Wergifosse,  T. A. Wesolowski,  A. White,  J. Witte,  A. Yamada,  
 Jun Yang,  K. Yao,  S. Yeganeh,  S. R. Yost,  Zhi-Qiang You,  A. Zech,  
 Igor Ying Zhang,  Xing Zhang,  Yan Zhao,  Ying Zhu,  B. R. Brooks,  
 G. K. L. Chan,  C. J. Cramer,  M. S. Gordon,  W. J. Hehre,  A. Klamt,  
 M. W. Schmidt,  C. D. Sherrill,  D. G. Truhlar,  A. Aspuru-Guzik,  R. Baer,  
 A. T. Bell,  N. A. Besley,  Jeng-Da Chai,  A. E. DePrince, III,  
 R. A. DiStasio Jr.,  A. Dreuw,  B. D. Dunietz,  T. R. Furlani,  
 Chao-Ping Hsu,  Yousung Jung,  Jing Kong,  D. S. Lambrecht,  WanZhen Liang,  
 C. Ochsenfeld,  V. A. Rassolov,  L. V. Slipchenko,  J. E. Subotnik,  
 T. Van Voorhis,  J. M. Herbert,  A. I. Krylov,  P. M. W. Gill,  M. Head-Gordon

 Contributors to earlier versions of Q-Chem not listed above: 
 R. D. Adamson,  B. Austin,  J. Baker,  G. J. O. Beran,  K. Brandhorst,  
 S. T. Brown,  E. F. C. Byrd,  A. K. Chakraborty,  C.-L. Cheng,  
 Siu Hung Chien,  D. M. Chipman,  D. L. Crittenden,  H. Dachsel,  
 R. J. Doerksen,  A. D. Dutoi,  L. Fusti-Molnar,  W. A. Goddard III,  
 A. Golubeva-Zadorozhnaya,  S. R. Gwaltney,  G. Hawkins,  A. Heyden,  
 S. Hirata,  G. Kedziora,  F. J. Keil,  C. Kelley,  Jihan Kim,  R. A. King,  
 R. Z. Khaliullin,  P. P. Korambath,  W. Kurlancheek,  A. M. Lee,  M. S. Lee,  
 S. V. Levchenko,  Ching Yeh Lin,  D. Liotard,  R. C. Lochan,  I. Lotan,  
 P. E. Maslen,  N. Nair,  D. P. O'Neill,  D. Neuhauser,  E. Neuscamman,  
 C. M. Oana,  R. Olson,  B. Peters,  R. Peverati,  P. A. Pieniazek,  
 Y. M. Rhee,  J. Ritchie,  M. A. Rohrdanz,  E. Rosta,  N. J. Russ,  
 H. F. Schaefer III,  N. E. Schultz,  N. Shenvi,  A. C. Simmonett,  A. Sodt,  
 D. Stuck,  K. S. Thanthiriwatte,  V. Vanovschi,  Tao Wang,  A. Warshel,  
 C. F. Williams,  Q. Wu,  X. Xu,  W. Zhang

 Please cite Q-Chem as follows:
 Y. Shao et al., Mol. Phys. 113, 184-215 (2015)
 DOI: 10.1080/00268976.2014.952696

 Q-Chem 5.1.1 for Intel X86 EM64T Linux

 Parts of Q-Chem use Armadillo 8.300.2 (Tropical Shenanigans).
 http://arma.sourceforge.net/

 Q-Chem begins on Sat Oct  3 14:46:52 2020  

Host: n0071.mhg0
0

     Scratch files written to /local/scratch/users/yhljason/PH2_PTPSS-D3_aug-cc-pcVQZ.inp20201003135119//
The previous job contains 0 fragments, simply inherited here
Input Ideriv = 0
Curr. Ideriv = -1
Max.  Ideriv = 0
Input Ideriv = 1
Curr. Ideriv = 0
Max.  Ideriv = 0

Checking the input file for inconsistencies... 	...done.

--------------------------------------------------------------
User input:
--------------------------------------------------------------
$molecule
read
$end

$rem

jobtype sp
method PTPSS-D3
xc_grid 000099000590
basis aug-cc-pcVQZ
max_scf_cycles 200
thresh 14
scf_convergence 8
mem_total 128000
cc_memory 96000
cc_backend xm
mem_static 1500
symmetry false
sym_ignore true
scf_guess read
unrestricted false
scf_algorithm gdm
n_frozen_core 0
$end

$multipole_field
YY -0.0001
$end


--------------------------------------------------------------
 Adding empirical dispersion correction 
 ----------------------------------------------------------------
 Doing -D3(0) with
 s6  =   0.75000
 s8  =   0.87900
 rs6 =   1.54100
 rs8 =   1.00000
 -D3 energy without 3body term =     -0.0000380734 hartrees
 ----------------------------------------------------------------
             Standard Nuclear Orientation (Angstroms)
    I     Atom           X                Y                Z
 ----------------------------------------------------------------
    1      P       0.0000000000     0.0000000000     0.0000000000
    2      H       0.0000000000     1.0229000000     0.9964000000
    3      H       0.0000000000    -1.0229000000     0.9964000000
 ----------------------------------------------------------------
 Nuclear Repulsion Energy =    11.3759225039 hartrees
 There are        9 alpha and        8 beta electrons
 Requested basis set is aug-cc-pCVQZ
 There are 62 shells and 226 basis functions

 Total QAlloc Memory Limit 128000 MB
 Mega-Array Size      1467 MB
 MEM_STATIC part      1500 MB

                       Distance Matrix (Angstroms)
             P (  1)   H (  2)
   H (  2)  1.427984
   H (  3)  1.427984  2.045800
 
 Applying Cartesian multipole field
    Component          Value
    ---------          -----
     (0,2,0)       -1.00000E-04
 Nucleus-field energy     =    -0.0007472985 hartrees
 A cutoff of  1.0D-14 yielded   1953 shell pairs
 There are     26129 function pairs (     41436 Cartesian)
 
 -------------------------------------------------------
 OpenMP Integral Computing Module                       
 Release: version 1.0, May 2013, Q-Chem Inc. Pittsburgh 
 -------------------------------------------------------
 Integral Job Info:
 Integral job number is                      11
 Integral operator is                         1
 short-range coefficients                     0
 long-range coefficients              100000000
 Omega coefficients                           0
 if combine SR and LR in K                    0
 Integral screening is                        0
 Integral computing path is                   2
 max size of driver memory is           3200000
 size of driver memory is               1704330
 size of scratch memory is             29435624
 max col of scratch BK array              50625
 max len of scratch array in speh3         2114
 max len of scratch index in speh4           50
 max int batch size is                      520
 min int batch size is                       52
 fixed nKL is                                22
 max L of basis functions is                  4
 order of int derivative is                   0
 number of shells is                         62
 number of basis is                         284
 number of cartesian basis is               284
 number of contracted shell pairs          1953
 number of primitive shell pairs           6866
 maxK2 (contraction) of shell pair          169
 max number of K2 of shell pair               1
 max number of CS2 of shell pair            227
 max number of PS2 of shell pair           1014
 mem total for path MDJ                  662152
 -------------------------------------------------------
 Smallest overlap matrix eigenvalue = 3.01E-05
 Guess MOs from SCF MO coefficient file
 Reading MOs from coefficient file
 Reading MOs from coefficient file
 A restricted hybrid HF-DFT SCF calculation will be
 performed using Geometric Direct Minimization
 Exchange:     0.5000 Hartree-Fock + 0.5000 PTPSS-D3
 Correlation:  0.6250 PTPSS-D3
 Using Euler-Maclaurin-Lebedev (99,590) quadrature formula
 Dispersion:   Grimme D3
 SCF converges when RMS gradient is below 1.0E-08
Using Q-Chem read-in guess as SCF_GUESS READ specified.

 using 8 threads for integral computing
 -------------------------------------------------------
 OpenMP Integral computing Module                
 Release: version 2.0, May 2017, Q-Chem Inc. Pleasanton 
 -------------------------------------------------------
TIMEINFO->: J/JK contribution 122.56 sec.
 -------------------------------------------------------
 OpenMP BLAS3 based DFT computing Module                
 Release: version 1.0, May 2013, Q-Chem Inc. Pittsburgh 
 -------------------------------------------------------
 ---------------------------------------
  Cycle       Energy        RMS Gradient
 ---------------------------------------
    1    -342.3187033221      8.77E-04 Normal BFGS step
TIMEINFO->: J/JK contribution 128.93 sec.
    2    -342.3187063426      5.88E-04 Normal BFGS step
TIMEINFO->: J/JK contribution 117.26 sec.
    3    -342.3187067031      1.79E-04 Normal BFGS step
TIMEINFO->: J/JK contribution 111.64 sec.
    4    -342.3187067279      2.43E-05 Normal BFGS step
TIMEINFO->: J/JK contribution 110.06 sec.
    5    -342.3187067289      5.18E-06 Normal BFGS step
TIMEINFO->: J/JK contribution 120.99 sec.
    6    -342.3187067289      8.57E-07 Normal BFGS step
TIMEINFO->: J/JK contribution 121.08 sec.
    7    -342.3187067290      2.96E-07 Normal BFGS step
TIMEINFO->: J/JK contribution 108.90 sec.
[...]
  9.215   9.472   9.575  10.195  10.520  14.146  14.694  14.786
 16.085  16.175  16.205  16.221  16.313  16.653  16.677  23.556
 27.021  27.025  27.133  27.346  27.749  39.871  40.372  40.452
 46.614  46.614  46.618  46.618  46.619  46.619  46.620  46.626
 46.627  56.710  56.747  56.757  56.771  56.821  56.959  56.965
 68.496  79.774  79.777  79.856  79.975  80.282 124.924 125.322
125.387 326.754
 --------------------------------------------------------------
 
          Ground-State Mulliken Net Atomic Charges

     Atom                 Charge (a.u.)
  ----------------------------------------
      1 P                    -0.066926
      2 H                     0.033463
      3 H                     0.033463
  ----------------------------------------
  Sum of atomic charges =    -0.000000

 -----------------------------------------------------------------
                    Cartesian Multipole Moments
 -----------------------------------------------------------------
    Charge (ESU x 10^10)
                -0.0000
    Dipole Moment (Debye)
         X       0.0000      Y       0.0000      Z       0.5691
       Tot       0.5691
    Quadrupole Moments (Debye-Ang)
        XX     -15.2166     XY       0.0000     YY     -14.0288
        XZ       0.0000     YZ       0.0000     ZZ     -15.4579
    Octopole Moments (Debye-Ang^2)
       XXX       0.0000    XXY       0.0000    XYY       0.0000
       YYY       0.0000    XXZ      -1.4701    XYZ       0.0000
       YYZ      -1.4654    XZZ       0.0000    YZZ       0.0000
       ZZZ      -4.5809
    Hexadecapole Moments (Debye-Ang^3)
      XXXX     -23.7313   XXXY       0.0000   XXYY      -9.3031
      XYYY       0.0000   YYYY     -30.6387   XXXZ       0.0000
      XXYZ       0.0000   XYYZ       0.0000   YYYZ       0.0000
      XXZZ      -9.9830   XYZZ       0.0000   YYZZ     -10.1654
      XZZZ       0.0000   YZZZ       0.0000   ZZZZ     -35.3402
 -----------------------------------------------------------------
Archival summary:
1\1\n0071.mhg0\SP\ROProcedureUnspecified\BasisUnspecified\12(2)\yhljason\SatOct315:03:342020SatOct315:03:342020\0\\#,ROProcedureUnspecified,BasisUnspecified,\\0,2\P\H,1,1.42798\H,1,1.42798,2,91.5037\\\@

 Total job time:  500.80s(wall), 3952.61s(cpu) 
 Sat Oct  3 15:03:34 2020

        *************************************************************
        *                                                           *
        *  Thank you very much for using Q-Chem.  Have a nice day.  *
        *                                                           *
        *************************************************************


 
User input: 8 of 8 
 
Q-Chem Developer Version!
                  Welcome to Q-Chem
     A Quantum Leap Into The Future Of Chemistry


 Q-Chem 5.1, Q-Chem, Inc., Pleasanton, CA (2018)

 Yihan Shao,  Zhengting Gan,  E. Epifanovsky,  A. T. B. Gilbert,  M. Wormit,  
 J. Kussmann,  A. W. Lange,  A. Behn,  Jia Deng,  Xintian Feng,  D. Ghosh,  
 M. Goldey,  P. R. Horn,  L. D. Jacobson,  I. Kaliman,  T. Kus,  A. Landau,  
 Jie Liu,  E. I. Proynov,  R. M. Richard,  R. P. Steele,  E. J. Sundstrom,  
 H. L. Woodcock III,  P. M. Zimmerman,  D. Zuev,  B. Albrecht,  E. Alguire,  
 S. A. Baeppler,  D. Barton,  Z. Benda,  Y. A. Bernard,  E. J. Berquist,  
 K. B. Bravaya,  H. Burton,  D. Casanova,  Chun-Min Chang,  Yunqing Chen,  
 A. Chien,  K. D. Closser,  M. P. Coons,  S. Coriani,  S. Dasgupta,  
 A. L. Dempwolff,  M. Diedenhofen,  Hainam Do,  R. G. Edgar,  Po-Tung Fang,  
 S. Faraji,  S. Fatehi,  Qingguo Feng,  K. D. Fenk,  J. Fosso-Tande,  
 Qinghui Ge,  A. Ghysels,  G. Gidofalvi,  J. Gomes,  J. Gonthier,  A. Gunina,  
 D. Hait,  M. W. D. Hanson-Heine,  P. H. P. Harbach,  A. W. Hauser,  
 J. E. Herr,  E. G. Hohenstein,  Z. C. Holden,  Kerwin Hui,  B. C. Huynh,  
 T.-C. Jagau,  Hyunjun Ji,  B. Kaduk,  K. Khistyaev,  Jaehoon Kim,  
 P. Klunzinger,  K. Koh,  D. Kosenkov,  L. Koulias,  T. Kowalczyk,  
 C. M. Krauter,  A. Kunitsa,  Ka Un Lao,  A. Laurent,  K. V. Lawler,  
 Joonho Lee,  D. Lefrancois,  S. Lehtola,  D. S. Levine,  Yi-Pei Li,  
 You-Sheng Lin,  Fenglai Liu,  E. Livshits,  A. Luenser,  P. Manohar,  
 E. Mansoor,  S. F. Manzer,  Shan-Ping Mao,  Yuezhi Mao,  N. Mardirossian,  
 A. V. Marenich,  T. Markovich,  L. A. Martinez-Martinez,  S. A. Maurer,  
 N. J. Mayhall,  S. C. McKenzie,  J.-M. Mewes,  A. F. Morrison,  
 J. W. Mullinax,  K. Nanda,  T. S. Nguyen-Beck,  R. Olivares-Amaya,  
 J. A. Parkhill,  T. M. Perrine,  F. Plasser,  P. Pokhilko,  S. Prager,  
 A. Prociuk,  E. Ramos,  D. R. Rehn,  F. Rob,  M. Schneider,  N. Sergueev,  
 S. M. Sharada,  S. Sharma,  D. W. Small,  T. Stauch,  T. Stein,  
 Yu-Chuan Su,  A. J. W. Thom,  A. Tkatchenko,  T. Tsuchimochi,  N. M. Tubman,  
 L. Vogt,  M. L. Vidal,  O. Vydrov,  M. A. Watson,  J. Wenzel,  
 M. de Wergifosse,  T. A. Wesolowski,  A. White,  J. Witte,  A. Yamada,  
 Jun Yang,  K. Yao,  S. Yeganeh,  S. R. Yost,  Zhi-Qiang You,  A. Zech,  
 Igor Ying Zhang,  Xing Zhang,  Yan Zhao,  Ying Zhu,  B. R. Brooks,  
 G. K. L. Chan,  C. J. Cramer,  M. S. Gordon,  W. J. Hehre,  A. Klamt,  
 M. W. Schmidt,  C. D. Sherrill,  D. G. Truhlar,  A. Aspuru-Guzik,  R. Baer,  
 A. T. Bell,  N. A. Besley,  Jeng-Da Chai,  A. E. DePrince, III,  
 R. A. DiStasio Jr.,  A. Dreuw,  B. D. Dunietz,  T. R. Furlani,  
 Chao-Ping Hsu,  Yousung Jung,  Jing Kong,  D. S. Lambrecht,  WanZhen Liang,  
 C. Ochsenfeld,  V. A. Rassolov,  L. V. Slipchenko,  J. E. Subotnik,  
 T. Van Voorhis,  J. M. Herbert,  A. I. Krylov,  P. M. W. Gill,  M. Head-Gordon

 Contributors to earlier versions of Q-Chem not listed above: 
 R. D. Adamson,  B. Austin,  J. Baker,  G. J. O. Beran,  K. Brandhorst,  
 S. T. Brown,  E. F. C. Byrd,  A. K. Chakraborty,  C.-L. Cheng,  
 Siu Hung Chien,  D. M. Chipman,  D. L. Crittenden,  H. Dachsel,  
 R. J. Doerksen,  A. D. Dutoi,  L. Fusti-Molnar,  W. A. Goddard III,  
 A. Golubeva-Zadorozhnaya,  S. R. Gwaltney,  G. Hawkins,  A. Heyden,  
 S. Hirata,  G. Kedziora,  F. J. Keil,  C. Kelley,  Jihan Kim,  R. A. King,  
 R. Z. Khaliullin,  P. P. Korambath,  W. Kurlancheek,  A. M. Lee,  M. S. Lee,  
 S. V. Levchenko,  Ching Yeh Lin,  D. Liotard,  R. C. Lochan,  I. Lotan,  
 P. E. Maslen,  N. Nair,  D. P. O'Neill,  D. Neuhauser,  E. Neuscamman,  
 C. M. Oana,  R. Olson,  B. Peters,  R. Peverati,  P. A. Pieniazek,  
 Y. M. Rhee,  J. Ritchie,  M. A. Rohrdanz,  E. Rosta,  N. J. Russ,  
 H. F. Schaefer III,  N. E. Schultz,  N. Shenvi,  A. C. Simmonett,  A. Sodt,  
 D. Stuck,  K. S. Thanthiriwatte,  V. Vanovschi,  Tao Wang,  A. Warshel,  
 C. F. Williams,  Q. Wu,  X. Xu,  W. Zhang

 Please cite Q-Chem as follows:
 Y. Shao et al., Mol. Phys. 113, 184-215 (2015)
 DOI: 10.1080/00268976.2014.952696

 Q-Chem 5.1.1 for Intel X86 EM64T Linux

 Parts of Q-Chem use Armadillo 8.300.2 (Tropical Shenanigans).
 http://arma.sourceforge.net/

 Q-Chem begins on Sat Oct  3 15:03:34 2020  

Host: n0071.mhg0
0

     Scratch files written to /local/scratch/users/yhljason/PH2_PTPSS-D3_aug-cc-pcVQZ.inp20201003135119//
The previous job contains 0 fragments, simply inherited here
Input Ideriv = 0
Curr. Ideriv = -1
Max.  Ideriv = 0
Input Ideriv = 1
Curr. Ideriv = 0
Max.  Ideriv = 0

Checking the input file for inconsistencies... 	...done.

--------------------------------------------------------------
User input:
--------------------------------------------------------------
$molecule
read
$end

$rem

jobtype sp
method PTPSS-D3
xc_grid 000099000590
basis aug-cc-pcVQZ
max_scf_cycles 200
thresh 14
scf_convergence 8
mem_total 128000
cc_memory 96000
cc_backend xm
mem_static 1500
symmetry false
sym_ignore true
scf_guess read
unrestricted false
scf_algorithm gdm
n_frozen_core 0
$end

$multipole_field
ZZ -0.0001
$end

--------------------------------------------------------------
 Adding empirical dispersion correction 
 ----------------------------------------------------------------
 Doing -D3(0) with
 s6  =   0.75000
 s8  =   0.87900
 rs6 =   1.54100
 rs8 =   1.00000
 -D3 energy without 3body term =     -0.0000380734 hartrees
 ----------------------------------------------------------------
             Standard Nuclear Orientation (Angstroms)
    I     Atom           X                Y                Z
 ----------------------------------------------------------------
    1      P       0.0000000000     0.0000000000     0.0000000000
    2      H       0.0000000000     1.0229000000     0.9964000000
    3      H       0.0000000000    -1.0229000000     0.9964000000
 ----------------------------------------------------------------
 Nuclear Repulsion Energy =    11.3759225039 hartrees
 There are        9 alpha and        8 beta electrons
 Requested basis set is aug-cc-pCVQZ
 There are 62 shells and 226 basis functions

 Total QAlloc Memory Limit 128000 MB
 Mega-Array Size      1467 MB
 MEM_STATIC part      1500 MB

                       Distance Matrix (Angstroms)
             P (  1)   H (  2)
   H (  2)  1.427984
   H (  3)  1.427984  2.045800
 
 Applying Cartesian multipole field
    Component          Value
    ---------          -----
     (0,0,2)       -1.00000E-04
 Nucleus-field energy     =    -0.0007090799 hartrees
 A cutoff of  1.0D-14 yielded   1953 shell pairs
 There are     26129 function pairs (     41436 Cartesian)
 
 -------------------------------------------------------
 OpenMP Integral Computing Module                       
 Release: version 1.0, May 2013, Q-Chem Inc. Pittsburgh 
 -------------------------------------------------------
 Integral Job Info:
 Integral job number is                      11
 Integral operator is                         1
 short-range coefficients                     0
 long-range coefficients              100000000
 Omega coefficients                           0
 if combine SR and LR in K                    0
 Integral screening is                        0
 Integral computing path is                   2
 max size of driver memory is           3200000
 size of driver memory is               1704330
 size of scratch memory is             29435624
 max col of scratch BK array              50625
 max len of scratch array in speh3         2114
 max len of scratch index in speh4           50
 max int batch size is                      520
 min int batch size is                       52
 fixed nKL is                                22
 max L of basis functions is                  4
 order of int derivative is                   0
 number of shells is                         62
 number of basis is                         284
 number of cartesian basis is               284
 number of contracted shell pairs          1953
 number of primitive shell pairs           6866
 maxK2 (contraction) of shell pair          169
 max number of K2 of shell pair               1
 max number of CS2 of shell pair            227
 max number of PS2 of shell pair           1014
 mem total for path MDJ                  662152
 -------------------------------------------------------
 Smallest overlap matrix eigenvalue = 3.01E-05
 Guess MOs from SCF MO coefficient file
 Reading MOs from coefficient file
 Reading MOs from coefficient file
 A restricted hybrid HF-DFT SCF calculation will be
 performed using Geometric Direct Minimization
 Exchange:     0.5000 Hartree-Fock + 0.5000 PTPSS-D3
 Correlation:  0.6250 PTPSS-D3
 Using Euler-Maclaurin-Lebedev (99,590) quadrature formula
 Dispersion:   Grimme D3
 SCF converges when RMS gradient is below 1.0E-08
Using Q-Chem read-in guess as SCF_GUESS READ specified.

 using 8 threads for integral computing
 -------------------------------------------------------
 OpenMP Integral computing Module                
 Release: version 2.0, May 2017, Q-Chem Inc. Pleasanton 
 -------------------------------------------------------
TIMEINFO->: J/JK contribution 131.27 sec.
 -------------------------------------------------------
 OpenMP BLAS3 based DFT computing Module                
 Release: version 1.0, May 2013, Q-Chem Inc. Pittsburgh 
 -------------------------------------------------------
 ---------------------------------------
  Cycle       Energy        RMS Gradient
 ---------------------------------------
    1    -342.3185983849      1.28E-03 Normal BFGS step
TIMEINFO->: J/JK contribution 127.04 sec.
    2    -342.3186019865      6.34E-04 Normal BFGS step
TIMEINFO->: J/JK contribution 125.96 sec.
    3    -342.3186024778      1.80E-04 Normal BFGS step
TIMEINFO->: J/JK contribution 127.26 sec.
    4    -342.3186025095      2.37E-05 Normal BFGS step
TIMEINFO->: J/JK contribution 125.60 sec.
    5    -342.3186025104      5.43E-06 Normal BFGS step
TIMEINFO->: J/JK contribution 121.72 sec.
    6    -342.3186025104      6.16E-07 Normal BFGS step
TIMEINFO->: J/JK contribution 119.07 sec.
    7    -342.3186025104      1.05E-07 Normal BFGS step
TIMEINFO->: J/JK contribution 115.87 sec.
    8    -342.3186025104      2.08E-08 Normal BFGS step
TIMEINFO->: J/JK contribution 107.60 sec.
   GDM::WARNING energy changes are now smaller than effective accuracy.
   GDM::        calculation will continue, but THRESH should be increased
   GDM::        or SCF_CONVERGENCE decreased.
   GDM::        effective_thresh =   6.061504211757329E-009
    9    -342.3186025104      4.59E-09 Convergence criterion met
 ---------------------------------------
 SCF time:  CPU 1535.39 s  wall 193.81 s
 SCF   energy in the final basis set = -342.31860251
 Total energy in the final basis set = -342.31860251
 
 Components of the MP2 correlation energy:
        aaaa  correlation energy =         0.0000000000 au
        abab  correlation energy =        -0.1698053705 au
        bbbb  correlation energy =         0.0000000000 au
        non-Brillouin singles    =        -0.0021524624 au

 Total  MP2   correlation energy =                    -0.17195783 au
        MP2         total energy =                  -342.49056034 au
 
 --------------------------------------------------------------
 
                    Orbital Energies (a.u.)
 --------------------------------------------------------------
 
 Alpha MOs
 -- Occupied --
-78.249  -6.941  -4.974  -4.972  -4.984  -0.723  -0.444  -0.364
 -0.299
 -- Virtual --
  0.012   0.040   0.047   0.053   0.055   0.089   0.103   0.105
  0.117   0.120   0.123   0.180   0.207   0.214   0.218   0.234
  0.235   0.240   0.255   0.310   0.320   0.349   0.353   0.347
  0.355   0.355   0.379   0.444   0.452   0.474   0.489   0.486
  0.496   0.496   0.592   0.611   0.634   0.666   0.677   0.681
  0.708   0.728   0.729   0.754   0.810   0.838   0.864   0.978
  0.990   1.003   1.012   1.042   1.081   1.081   1.090   1.097
  1.141   1.147   1.172   1.176   1.239   1.278   1.283   1.290
  1.313   1.322   1.330   1.378   1.379   1.445   1.512   1.577
  1.593   1.596   1.644   1.648   1.658   1.713   1.739   1.797
  1.844   1.892   1.966   1.994   2.003   2.012   2.029   2.085
  2.105   2.144   2.162   2.178   2.264   2.351   2.498   2.571
  2.582   2.597   2.618   2.690   2.735   2.773   2.778   2.835
  2.880   2.894   2.991   3.004   3.022   3.042   3.105   3.116
  3.189   3.216   3.241   3.279   3.344   3.370   3.408   3.437
  3.475   3.534   3.538   3.842   3.842   3.888   4.055   4.114
  4.197   4.300   4.372   4.755   5.370   5.589   6.481   6.489
  6.532   6.549   6.590   6.719   6.749   6.806   6.833   6.889
  6.970   7.029   7.142   7.282   7.378   7.799   7.805   8.221
  8.240   8.264   8.310   8.351   8.478   8.540   8.583   8.580
  8.599   8.721   8.964   9.055   9.075   9.080   9.195   9.199
  9.450   9.556  10.162  10.491  14.125  14.684  14.777  16.082
 16.170  16.200  16.214  16.309  16.649  16.672  23.549  27.009
 27.013  27.130  27.331  27.744  39.858  40.367  40.447  46.611
 46.611  46.615  46.615  46.617  46.617  46.618  46.625  46.626
 56.705  56.741  56.751  56.764  56.816  56.957  56.962  68.491
 79.767  79.770  79.854  79.965  80.280 124.916 125.321 125.385
326.751
 
 Beta MOs
 -- Occupied --
-78.244  -6.935  -4.971  -4.969  -4.962  -0.679  -0.433  -0.339
 -- Virtual --
 -0.060   0.015   0.041   0.052   0.056   0.064   0.098   0.107
  0.122   0.124   0.134   0.137   0.182   0.213   0.218   0.220
  0.238   0.244   0.249   0.257   0.340   0.327   0.356   0.365
  0.377   0.377   0.383   0.386   0.453   0.458   0.477   0.492
  0.498   0.500   0.504   0.603   0.615   0.635   0.673   0.684
  0.686   0.715   0.731   0.736   0.758   0.816   0.842   0.865
  1.007   0.994   1.025   1.036   1.049   1.084   1.103   1.105
  1.102   1.157   1.168   1.194   1.207   1.246   1.285   1.295
  1.301   1.317   1.328   1.335   1.384   1.387   1.454   1.516
  1.580   1.601   1.601   1.649   1.651   1.662   1.717   1.741
  1.797   1.848   1.891   1.970   1.998   2.003   2.013   2.037
  2.097   2.112   2.144   2.165   2.183   2.269   2.362   2.504
  2.577   2.587   2.610   2.629   2.701   2.742   2.792   2.795
  2.853   2.896   2.919   3.002   3.020   3.050   3.060   3.112
  3.131   3.199   3.226   3.265   3.302   3.369   3.391   3.429
  3.453   3.492   3.550   3.545   3.850   3.851   3.908   4.067
  4.125   4.214   4.312   4.385   4.778   5.380   5.599   6.478
  6.485   6.528   6.545   6.603   6.730   6.768   6.823   6.846
  6.908   6.995   7.054   7.164   7.305   7.399   7.810   7.813
  8.230   8.248   8.274   8.315   8.354   8.481   8.541   8.587
  8.597   8.614   8.733   8.983   9.070   9.091   9.102   9.213
  9.216   9.473   9.576  10.196  10.521  14.147  14.695  14.787
 16.086  16.176  16.206  16.222  16.314  16.654  16.678  23.557
 27.022  27.026  27.134  27.347  27.750  39.872  40.373  40.453
 46.615  46.615  46.619  46.619  46.620  46.620  46.621  46.627
 46.628  56.711  56.748  56.758  56.772  56.822  56.960  56.966
 68.497  79.775  79.778  79.857  79.976  80.283 124.925 125.323
125.388 326.755
 --------------------------------------------------------------
 
          Ground-State Mulliken Net Atomic Charges

     Atom                 Charge (a.u.)
  ----------------------------------------
      1 P                    -0.070375
      2 H                     0.035188
      3 H                     0.035188
  ----------------------------------------
  Sum of atomic charges =    -0.000000

 -----------------------------------------------------------------
                    Cartesian Multipole Moments
 -----------------------------------------------------------------
    Charge (ESU x 10^10)
                -0.0000
    Dipole Moment (Debye)
         X      -0.0000      Y      -0.0000      Z       0.5793
       Tot       0.5793
    Quadrupole Moments (Debye-Ang)
        XX     -15.2142     XY       0.0000     YY     -14.0231
        XZ      -0.0000     YZ       0.0000     ZZ     -15.4026
    Octopole Moments (Debye-Ang^2)
       XXX       0.0000    XXY      -0.0000    XYY      -0.0000
       YYY      -0.0000    XXZ      -1.4650    XYZ      -0.0000
       YYZ      -1.4461    XZZ      -0.0000    YZZ      -0.0000
       ZZZ      -4.5347
    Hexadecapole Moments (Debye-Ang^3)
      XXXX     -23.7130   XXXY       0.0000   XXYY      -9.2948
      XYYY       0.0000   YYYY     -30.6078   XXXZ      -0.0000
      XXYZ      -0.0000   XYYZ       0.0000   YYYZ      -0.0000
      XXZZ      -9.9368   XYZZ       0.0000   YYZZ     -10.0966
      XZZZ      -0.0000   YZZZ      -0.0000   ZZZZ     -35.0315
 -----------------------------------------------------------------
Archival summary:
1\1\n0071.mhg0\SP\ROProcedureUnspecified\BasisUnspecified\12(2)\yhljason\SatOct315:12:122020SatOct315:12:122020\0\\#,ROProcedureUnspecified,BasisUnspecified,\\0,2\P\H,1,1.42798\H,1,1.42798,2,91.5037\\\@

 Total job time:  518.36s(wall), 4089.27s(cpu) 
 Sat Oct  3 15:12:12 2020

        *************************************************************
        *                                                           *
        *  Thank you very much for using Q-Chem.  Have a nice day.  *
        *                                                           *
        *************************************************************


