Q-Chem Developer Version!
                  Welcome to Q-Chem
     A Quantum Leap Into The Future Of Chemistry


 Q-Chem 5.1, Q-Chem, Inc., Pleasanton, CA (2018)

 Yihan Shao,  Zhengting Gan,  E. Epifanovsky,  A. T. B. Gilbert,  M. Wormit,  
 J. Kussmann,  A. W. Lange,  A. Behn,  Jia Deng,  Xintian Feng,  D. Ghosh,  
 M. Goldey,  P. R. Horn,  L. D. Jacobson,  I. Kaliman,  T. Kus,  A. Landau,  
 Jie Liu,  E. I. Proynov,  R. M. Richard,  R. P. Steele,  E. J. Sundstrom,  
 H. L. Woodcock III,  P. M. Zimmerman,  D. Zuev,  B. Albrecht,  E. Alguire,  
 S. A. Baeppler,  D. Barton,  Z. Benda,  Y. A. Bernard,  E. J. Berquist,  
 K. B. Bravaya,  H. Burton,  D. Casanova,  Chun-Min Chang,  Yunqing Chen,  
 A. Chien,  K. D. Closser,  M. P. Coons,  S. Coriani,  S. Dasgupta,  
 A. L. Dempwolff,  M. Diedenhofen,  Hainam Do,  R. G. Edgar,  Po-Tung Fang,  
 S. Faraji,  S. Fatehi,  Qingguo Feng,  K. D. Fenk,  J. Fosso-Tande,  
 Qinghui Ge,  A. Ghysels,  G. Gidofalvi,  J. Gomes,  J. Gonthier,  A. Gunina,  
 D. Hait,  M. W. D. Hanson-Heine,  P. H. P. Harbach,  A. W. Hauser,  
 J. E. Herr,  E. G. Hohenstein,  Z. C. Holden,  Kerwin Hui,  B. C. Huynh,  
 T.-C. Jagau,  Hyunjun Ji,  B. Kaduk,  K. Khistyaev,  Jaehoon Kim,  
 P. Klunzinger,  K. Koh,  D. Kosenkov,  L. Koulias,  T. Kowalczyk,  
 C. M. Krauter,  A. Kunitsa,  Ka Un Lao,  A. Laurent,  K. V. Lawler,  
 Joonho Lee,  D. Lefrancois,  S. Lehtola,  D. S. Levine,  Yi-Pei Li,  
 You-Sheng Lin,  Fenglai Liu,  E. Livshits,  A. Luenser,  P. Manohar,  
 E. Mansoor,  S. F. Manzer,  Shan-Ping Mao,  Yuezhi Mao,  N. Mardirossian,  
 A. V. Marenich,  T. Markovich,  L. A. Martinez-Martinez,  S. A. Maurer,  
 N. J. Mayhall,  S. C. McKenzie,  J.-M. Mewes,  A. F. Morrison,  
 J. W. Mullinax,  K. Nanda,  T. S. Nguyen-Beck,  R. Olivares-Amaya,  
 J. A. Parkhill,  T. M. Perrine,  F. Plasser,  P. Pokhilko,  S. Prager,  
 A. Prociuk,  E. Ramos,  D. R. Rehn,  F. Rob,  M. Schneider,  N. Sergueev,  
 S. M. Sharada,  S. Sharma,  D. W. Small,  T. Stauch,  T. Stein,  
 Yu-Chuan Su,  A. J. W. Thom,  A. Tkatchenko,  T. Tsuchimochi,  N. M. Tubman,  
 L. Vogt,  M. L. Vidal,  O. Vydrov,  M. A. Watson,  J. Wenzel,  
 M. de Wergifosse,  T. A. Wesolowski,  A. White,  J. Witte,  A. Yamada,  
 Jun Yang,  K. Yao,  S. Yeganeh,  S. R. Yost,  Zhi-Qiang You,  A. Zech,  
 Igor Ying Zhang,  Xing Zhang,  Yan Zhao,  Ying Zhu,  B. R. Brooks,  
 G. K. L. Chan,  C. J. Cramer,  M. S. Gordon,  W. J. Hehre,  A. Klamt,  
 M. W. Schmidt,  C. D. Sherrill,  D. G. Truhlar,  A. Aspuru-Guzik,  R. Baer,  
 A. T. Bell,  N. A. Besley,  Jeng-Da Chai,  A. E. DePrince, III,  
 R. A. DiStasio Jr.,  A. Dreuw,  B. D. Dunietz,  T. R. Furlani,  
 Chao-Ping Hsu,  Yousung Jung,  Jing Kong,  D. S. Lambrecht,  WanZhen Liang,  
 C. Ochsenfeld,  V. A. Rassolov,  L. V. Slipchenko,  J. E. Subotnik,  
 T. Van Voorhis,  J. M. Herbert,  A. I. Krylov,  P. M. W. Gill,  M. Head-Gordon

 Contributors to earlier versions of Q-Chem not listed above: 
 R. D. Adamson,  B. Austin,  J. Baker,  G. J. O. Beran,  K. Brandhorst,  
 S. T. Brown,  E. F. C. Byrd,  A. K. Chakraborty,  C.-L. Cheng,  
 Siu Hung Chien,  D. M. Chipman,  D. L. Crittenden,  H. Dachsel,  
 R. J. Doerksen,  A. D. Dutoi,  L. Fusti-Molnar,  W. A. Goddard III,  
 A. Golubeva-Zadorozhnaya,  S. R. Gwaltney,  G. Hawkins,  A. Heyden,  
 S. Hirata,  G. Kedziora,  F. J. Keil,  C. Kelley,  Jihan Kim,  R. A. King,  
 R. Z. Khaliullin,  P. P. Korambath,  W. Kurlancheek,  A. M. Lee,  M. S. Lee,  
 S. V. Levchenko,  Ching Yeh Lin,  D. Liotard,  R. C. Lochan,  I. Lotan,  
 P. E. Maslen,  N. Nair,  D. P. O'Neill,  D. Neuhauser,  E. Neuscamman,  
 C. M. Oana,  R. Olson,  B. Peters,  R. Peverati,  P. A. Pieniazek,  
 Y. M. Rhee,  J. Ritchie,  M. A. Rohrdanz,  E. Rosta,  N. J. Russ,  
 H. F. Schaefer III,  N. E. Schultz,  N. Shenvi,  A. C. Simmonett,  A. Sodt,  
 D. Stuck,  K. S. Thanthiriwatte,  V. Vanovschi,  Tao Wang,  A. Warshel,  
 C. F. Williams,  Q. Wu,  X. Xu,  W. Zhang

 Please cite Q-Chem as follows:
 Y. Shao et al., Mol. Phys. 113, 184-215 (2015)
 DOI: 10.1080/00268976.2014.952696

 Q-Chem 5.1.1 for Intel X86 EM64T Linux

 Parts of Q-Chem use Armadillo 8.300.2 (Tropical Shenanigans).
 http://arma.sourceforge.net/

 Q-Chem begins on Sat Oct  3 14:10:12 2020  

Host: n0091.mhg0
0

     Scratch files written to /local/scratch/users/yhljason/SCl2_PTPSS-D3_aug-cc-pcVQZ.inp20201003135121//
Input Ideriv = 0
Curr. Ideriv = -1
Max.  Ideriv = 0
Analytic post-HF gradients are not available with non-HF exchange
Input Ideriv = 0
Curr. Ideriv = 0
Max.  Ideriv = 0

Checking the input file for inconsistencies... 	...done.

--------------------------------------------------------------
User input:
--------------------------------------------------------------
$molecule
0 1
S1      0.0000  0.0000  0.8544
Cl2     0.0000  1.5740  -0.4021
Cl3     0.0000  -1.5740 -0.4021
$end

$rem
jobtype sp
method PTPSS-D3
xc_grid 000099000590
basis aug-cc-pcVQZ
max_scf_cycles 200
thresh 14
scf_convergence 8
scf_algorithm gdm
symmetry false
sym_ignore true
unrestricted false
gen_scfman true
internal_stability_iter 15
internal_stability_davidson_iter 200
mem_total 128000
cc_memory 96000
cc_backend xm
mem_static 1500
n_frozen_core 0
$end



--------------------------------------------------------------
 Adding empirical dispersion correction 
 ----------------------------------------------------------------
 Doing -D3(0) with
 s6  =   0.75000
 s8  =   0.87900
 rs6 =   1.54100
 rs8 =   1.00000
 -D3 energy without 3body term =     -0.0003896210 hartrees
 ----------------------------------------------------------------
             Standard Nuclear Orientation (Angstroms)
    I     Atom           X                Y                Z
 ----------------------------------------------------------------
    1      S       0.0000000000     0.0000000000     0.8544000000
    2      Cl      0.0000000000     1.5740000000    -0.4021000000
    3      Cl      0.0000000000    -1.5740000000    -0.4021000000
 ----------------------------------------------------------------
 Nuclear Repulsion Energy =   191.5147432726 hartrees
 There are       25 alpha and       25 beta electrons
 Requested basis set is aug-cc-pCVQZ
 There are 102 shells and 402 basis functions

 Total QAlloc Memory Limit 128000 MB
 Mega-Array Size      1467 MB
 MEM_STATIC part      1500 MB

                       Distance Matrix (Angstroms)
             S (  1)   Cl(  2)
   Cl(  2)  2.014018
   Cl(  3)  2.014018  3.148000
 
 A cutoff of  1.0D-14 yielded   4666 shell pairs
 There are     73226 function pairs (    124197 Cartesian)
 
 -------------------------------------------------------
 OpenMP Integral Computing Module                       
 Release: version 1.0, May 2013, Q-Chem Inc. Pittsburgh 
 -------------------------------------------------------
 Integral Job Info:
 Integral job number is                      11
 Integral operator is                         1
 short-range coefficients                     0
 long-range coefficients              100000000
 Omega coefficients                           0
 if combine SR and LR in K                    0
 Integral screening is                        0
 Integral computing path is                   2
 max size of driver memory is           3200000
 size of driver memory is               1704330
 size of scratch memory is             29435624
 max col of scratch BK array              50625
 max len of scratch array in speh3         2114
 max len of scratch index in speh4           50
 max int batch size is                      520
 min int batch size is                       52
 fixed nKL is                                22
 max L of basis functions is                  4
 order of int derivative is                   0
 number of shells is                        102
 number of basis is                         522
 number of cartesian basis is               522
 number of contracted shell pairs          4666
 number of primitive shell pairs          20235
 maxK2 (contraction) of shell pair          169
 max number of K2 of shell pair               1
 max number of CS2 of shell pair            435
 max number of PS2 of shell pair           3042
 mem total for path MDJ                  998488
 -------------------------------------------------------
 Smallest overlap matrix eigenvalue = 2.47E-05

 Scale SEOQF with 1.000000e-01/1.000000e-01/1.000000e-01

 Standard Electronic Orientation quadrupole field applied
 Nucleus-field energy     =     0.0000000042 hartrees
 Guess from superposition of atomic densities
 Warning:  Energy on first SCF cycle will be non-variational
 SAD guess density has 50.000000 electrons

 -----------------------------------------------------------------------
  General SCF calculation program by
  Eric Jon Sundstrom, Paul Horn, Yuezhi Mao, Dmitri Zuev, Alec White,
  David Stuck, Shaama M.S., Shane Yost, Joonho Lee, David Small,
  Daniel Levine, Susi Lehtola, Hugh Burton, Evgeny Epifanovsky
 -----------------------------------------------------------------------
 Exchange:     0.5000 Hartree-Fock + 0.5000 PTPSS-D3
 Correlation:  0.6250 PTPSS-D3
 Using Euler-Maclaurin-Lebedev (99,590) quadrature formula
 Dispersion:   Grimme D3
Running Object-Oriented RKS (RHF)
We will preform up to 15 macro iterations over saddle points until a stable solution is found
Energy prior to optimization (guess energy) = -1317.967424576622
Begin Timing: Total SCF Calculation
Begin Timing: SCF Single Stationary Point Calculation
begin iterations for algorithm: GDM          
the SCF tolerance is set to 1.00e-08
    1   -1317.9674245766      6.90e-02     00000  Normal BFGS step
    2   -1317.9658223197      9.42e-02     00000 Line search: overstep
    3   -1317.9887995671      1.37e-02     00000  Normal BFGS step
    4   -1317.9907526159      5.06e-03     00000  Normal BFGS step
    5   -1317.9908871351      1.59e-03     00000  Normal BFGS step
    6   -1317.9909145118      3.13e-04     00000  Normal BFGS step
    7   -1317.9909158257      1.77e-04     00000  Normal BFGS step
    8   -1317.9909159657      2.72e-05     00000  Normal BFGS step
    9   -1317.9909159725      7.67e-06     00000  Normal BFGS step
   10   -1317.9909159733      8.28e-07     00000  Normal BFGS step
   11   -1317.9909159733      1.54e-07     00000  Normal BFGS step
   12   -1317.9909159733      3.12e-08     00000  Normal BFGS step
   13   -1317.9909159733      5.10e-09     00000 Convergence criterion met
Timing for Single Stationary Point: 1744.00s (wall), 13833.20s (cpu)
Begin Timing: Stability
===================================================
Beginning Test for Internal Stability
===================================================
generating davidson guess vectors based on koopmans excitations
    1      2.95e+00     00000 Davidson Iteration
    2      1.92e-01     00000 Davidson Iteration
    3      3.18e-01     00000 Davidson Iteration
    4      2.89e-02     00000 Davidson Iteration
    5      1.74e-02     00000 Davidson Iteration
    6      2.17e-03     00000 Davidson Iteration
    7      9.34e-04     00000 Davidson Iteration
    8      5.55e-04     00000 Davidson Iteration
    9      9.75e-05     00000 Davidson Iteration
   10      6.19e-05     00000 Davidson Converged
converged_eigenvalues
   0.5531
   0.5725
Threshold for negative eigenvalues: -1.0e-05
solution was a local minimum (stable)
===================================================
End Test for Internal Stability
===================================================
Our SCF solution is stable!
Timing for Total SCF: 3521.00s (wall), 27920.85s (cpu)
 Total energy in the final basis set =    -1317.9909159733
    ==================================================
              The end of Object-Oriented SCFman       
    ==================================================
 
 Components of the MP2 correlation energy:
        aaaa  correlation energy =         0.0000000000 au
        abab  correlation energy =        -0.5540128169 au
        bbbb  correlation energy =         0.0000000000 au
        non-Brillouin singles    =        -0.0000000000 au

 Total  MP2   correlation energy =                    -0.55401282 au
        MP2         total energy =                 -1318.54492879 au
 
 --------------------------------------------------------------
 
                    Orbital Energies (a.u.)
 --------------------------------------------------------------
 
 Alpha MOs
 -- Occupied --
*******-102.918 -90.228  -9.942  -9.942  -8.447  -7.564  -7.564
 -7.558  -7.558  -7.557  -7.557  -6.278  -6.276  -6.268  -1.035
 -0.962  -0.769  -0.532  -0.494  -0.474  -0.413  -0.402  -0.396
 -0.301
 -- Virtual --
 -0.039  -0.025   0.036   0.047   0.051   0.062   0.079   0.087
  0.092   0.093   0.095   0.122   0.159   0.166   0.171   0.175
  0.192   0.208   0.217   0.237   0.240   0.246   0.281   0.284
  0.285   0.295   0.302   0.309   0.341   0.348   0.365   0.416
  0.419   0.422   0.433   0.438   0.475   0.481   0.488   0.489
  0.490   0.511   0.513   0.539   0.545   0.550   0.551   0.561
  0.583   0.596   0.613   0.650   0.652   0.662   0.680   0.710
  0.721   0.724   0.754   0.772   0.775   0.831   0.847   0.874
  0.874   0.913   0.920   0.949   0.964   0.983   1.025   1.035
  1.054   1.063   1.066   1.076   1.129   1.241   1.250   1.270
  1.296   1.313   1.334   1.350   1.370   1.417   1.423   1.431
  1.448   1.453   1.495   1.497   1.504   1.512   1.527   1.536
  1.543   1.551   1.574   1.592   1.595   1.609   1.616   1.624
  1.645   1.650   1.681   1.695   1.759   1.764   1.773   1.791
  1.817   1.881   1.898   1.900   1.916   1.932   1.937   1.949
  1.951   1.959   1.971   2.006   2.032   2.050   2.051   2.080
  2.096   2.107   2.137   2.196   2.197   2.211   2.255   2.291
  2.307   2.317   2.351   2.392   2.396   2.432   2.506   2.530
  2.664   2.675   2.694   2.710   2.755   2.815   2.992   3.017
  3.342   3.400   3.477   3.531   3.535   3.565   3.638   3.678
  3.692   3.725   3.726   3.729   3.753   3.760   3.788   3.808
  3.872   3.894   3.926   3.950   3.951   3.953   3.957   3.992
  4.089   4.090   4.106   4.125   4.298   4.439   4.454   4.466
  4.475   4.494   4.496   4.499   4.508   4.524   4.527   4.532
  4.540   4.548   4.570   4.576   4.594   4.603   4.626   4.632
  4.638   4.648   4.672   4.674   4.678   4.701   4.787   4.826
  4.888   4.920   4.949   4.962   5.098   5.159   5.377   5.408
  5.743   5.819   5.839   5.889   6.045   6.062   6.586   6.649
  8.518   9.882   9.904   9.961  10.030  10.034  10.459  10.653
 11.758  11.760  11.772  11.801  11.894  11.915  11.926  12.076
 12.439  12.445  15.962  16.367  16.543  17.770  17.775  17.778
 17.865  18.358  18.364  18.393  18.410  18.430  18.459  18.463
 18.561  18.623  21.204  21.204  21.207  21.211  21.223  21.229
 21.229  21.233  21.269  21.276  21.281  21.293  21.297  21.298
 28.292  31.469  31.508  31.534  31.714  31.934  33.658  33.776
 37.274  37.275  37.282  37.301  37.372  37.385  37.392  37.491
 37.654  37.680  45.714  46.062  46.208  51.514  51.533  51.537
 51.604  52.054  52.078  55.287  55.287  55.292  55.292  55.297
 55.299  55.300  55.302  55.303  64.901  64.902  64.902  64.902
 64.903  64.903  64.904  64.904  64.905  64.905  64.907  64.908
 64.908  64.908  64.913  64.913  64.913  64.913  65.419  65.425
 65.435  65.437  65.451  65.497  65.497  75.270  75.270  75.271
 75.273  75.279  75.282  75.282  75.284  75.303  75.306  75.309
 75.311  75.314  75.314  82.292  93.243  93.271  93.289  93.412
 93.595  97.625  97.767 110.118 110.118 110.123 110.137 110.190
110.199 110.203 110.274 110.370 110.391 145.317 145.552 145.649
165.752 165.765 165.768 165.807 166.083 166.096 387.944 455.422
456.016
 --------------------------------------------------------------
 
          Ground-State Mulliken Net Atomic Charges

     Atom                 Charge (a.u.)
  ----------------------------------------
      1 S                     0.162499
      2 Cl                   -0.081250
      3 Cl                   -0.081250
  ----------------------------------------
  Sum of atomic charges =    -0.000000

 -----------------------------------------------------------------
                    Cartesian Multipole Moments
 -----------------------------------------------------------------
    Charge (ESU x 10^10)
                -0.0000
    Dipole Moment (Debye)
         X      -0.0000      Y      -0.0000      Z       0.4120
       Tot       0.4120
    Quadrupole Moments (Debye-Ang)
        XX     -39.1323     XY       0.0000     YY     -36.5894
        XZ      -0.0000     YZ       0.0000     ZZ     -36.2116
    Octopole Moments (Debye-Ang^2)
       XXX       0.0000    XXY       0.0000    XYY      -0.0000
       YYY      -0.0000    XXZ      -1.5527    XYZ       0.0000
       YYZ      -3.6201    XZZ      -0.0000    YZZ      -0.0000
       ZZZ      -0.9384
    Hexadecapole Moments (Debye-Ang^3)
      XXXX     -47.2097   XXXY       0.0000   XXYY     -79.0274
      XYYY       0.0000   YYYY    -395.5484   XXXZ       0.0000
      XXYZ      -0.0000   XYYZ       0.0000   YYYZ       0.0000
      XXZZ     -30.0843   XYZZ       0.0000   YYZZ     -81.5341
      XZZZ      -0.0000   YZZZ       0.0000   ZZZZ    -117.3949
 -----------------------------------------------------------------
Archival summary:
1\1\n0091.mhg0\SP\ProcedureUnspecified\BasisUnspecified\l21\yhljason\SatOct316:08:142020SatOct316:08:142020\0\\#,ProcedureUnspecified,BasisUnspecified,\\0,1\S\Cl,1,2.01402\Cl,1,2.01402,2,102.8\\\@

 Total job time:  7082.79s(wall), 55816.15s(cpu) 
 Sat Oct  3 16:08:14 2020

        *************************************************************
        *                                                           *
        *  Thank you very much for using Q-Chem.  Have a nice day.  *
        *                                                           *
        *************************************************************


 
User input: 2 of 83 of 8 
 
Q-Chem Developer Version!
                  Welcome to Q-Chem
     A Quantum Leap Into The Future Of Chemistry


 Q-Chem 5.1, Q-Chem, Inc., Pleasanton, CA (2018)

 Yihan Shao,  Zhengting Gan,  E. Epifanovsky,  A. T. B. Gilbert,  M. Wormit,  
 J. Kussmann,  A. W. Lange,  A. Behn,  Jia Deng,  Xintian Feng,  D. Ghosh,  
 M. Goldey,  P. R. Horn,  L. D. Jacobson,  I. Kaliman,  T. Kus,  A. Landau,  
 Jie Liu,  E. I. Proynov,  R. M. Richard,  R. P. Steele,  E. J. Sundstrom,  
 H. L. Woodcock III,  P. M. Zimmerman,  D. Zuev,  B. Albrecht,  E. Alguire,  
 S. A. Baeppler,  D. Barton,  Z. Benda,  Y. A. Bernard,  E. J. Berquist,  
 K. B. Bravaya,  H. Burton,  D. Casanova,  Chun-Min Chang,  Yunqing Chen,  
 A. Chien,  K. D. Closser,  M. P. Coons,  S. Coriani,  S. Dasgupta,  
 A. L. Dempwolff,  M. Diedenhofen,  Hainam Do,  R. G. Edgar,  Po-Tung Fang,  
 S. Faraji,  S. Fatehi,  Qingguo Feng,  K. D. Fenk,  J. Fosso-Tande,  
 Qinghui Ge,  A. Ghysels,  G. Gidofalvi,  J. Gomes,  J. Gonthier,  A. Gunina,  
 D. Hait,  M. W. D. Hanson-Heine,  P. H. P. Harbach,  A. W. Hauser,  
 J. E. Herr,  E. G. Hohenstein,  Z. C. Holden,  Kerwin Hui,  B. C. Huynh,  
 T.-C. Jagau,  Hyunjun Ji,  B. Kaduk,  K. Khistyaev,  Jaehoon Kim,  
 P. Klunzinger,  K. Koh,  D. Kosenkov,  L. Koulias,  T. Kowalczyk,  
 C. M. Krauter,  A. Kunitsa,  Ka Un Lao,  A. Laurent,  K. V. Lawler,  
 Joonho Lee,  D. Lefrancois,  S. Lehtola,  D. S. Levine,  Yi-Pei Li,  
 You-Sheng Lin,  Fenglai Liu,  E. Livshits,  A. Luenser,  P. Manohar,  
 E. Mansoor,  S. F. Manzer,  Shan-Ping Mao,  Yuezhi Mao,  N. Mardirossian,  
 A. V. Marenich,  T. Markovich,  L. A. Martinez-Martinez,  S. A. Maurer,  
 N. J. Mayhall,  S. C. McKenzie,  J.-M. Mewes,  A. F. Morrison,  
 J. W. Mullinax,  K. Nanda,  T. S. Nguyen-Beck,  R. Olivares-Amaya,  
 J. A. Parkhill,  T. M. Perrine,  F. Plasser,  P. Pokhilko,  S. Prager,  
 A. Prociuk,  E. Ramos,  D. R. Rehn,  F. Rob,  M. Schneider,  N. Sergueev,  
 S. M. Sharada,  S. Sharma,  D. W. Small,  T. Stauch,  T. Stein,  
 Yu-Chuan Su,  A. J. W. Thom,  A. Tkatchenko,  T. Tsuchimochi,  N. M. Tubman,  
 L. Vogt,  M. L. Vidal,  O. Vydrov,  M. A. Watson,  J. Wenzel,  
 M. de Wergifosse,  T. A. Wesolowski,  A. White,  J. Witte,  A. Yamada,  
 Jun Yang,  K. Yao,  S. Yeganeh,  S. R. Yost,  Zhi-Qiang You,  A. Zech,  
 Igor Ying Zhang,  Xing Zhang,  Yan Zhao,  Ying Zhu,  B. R. Brooks,  
 G. K. L. Chan,  C. J. Cramer,  M. S. Gordon,  W. J. Hehre,  A. Klamt,  
 M. W. Schmidt,  C. D. Sherrill,  D. G. Truhlar,  A. Aspuru-Guzik,  R. Baer,  
 A. T. Bell,  N. A. Besley,  Jeng-Da Chai,  A. E. DePrince, III,  
 R. A. DiStasio Jr.,  A. Dreuw,  B. D. Dunietz,  T. R. Furlani,  
 Chao-Ping Hsu,  Yousung Jung,  Jing Kong,  D. S. Lambrecht,  WanZhen Liang,  
 C. Ochsenfeld,  V. A. Rassolov,  L. V. Slipchenko,  J. E. Subotnik,  
 T. Van Voorhis,  J. M. Herbert,  A. I. Krylov,  P. M. W. Gill,  M. Head-Gordon

 Contributors to earlier versions of Q-Chem not listed above: 
 R. D. Adamson,  B. Austin,  J. Baker,  G. J. O. Beran,  K. Brandhorst,  
 S. T. Brown,  E. F. C. Byrd,  A. K. Chakraborty,  C.-L. Cheng,  
 Siu Hung Chien,  D. M. Chipman,  D. L. Crittenden,  H. Dachsel,  
 R. J. Doerksen,  A. D. Dutoi,  L. Fusti-Molnar,  W. A. Goddard III,  
 A. Golubeva-Zadorozhnaya,  S. R. Gwaltney,  G. Hawkins,  A. Heyden,  
 S. Hirata,  G. Kedziora,  F. J. Keil,  C. Kelley,  Jihan Kim,  R. A. King,  
 R. Z. Khaliullin,  P. P. Korambath,  W. Kurlancheek,  A. M. Lee,  M. S. Lee,  
 S. V. Levchenko,  Ching Yeh Lin,  D. Liotard,  R. C. Lochan,  I. Lotan,  
 P. E. Maslen,  N. Nair,  D. P. O'Neill,  D. Neuhauser,  E. Neuscamman,  
 C. M. Oana,  R. Olson,  B. Peters,  R. Peverati,  P. A. Pieniazek,  
 Y. M. Rhee,  J. Ritchie,  M. A. Rohrdanz,  E. Rosta,  N. J. Russ,  
 H. F. Schaefer III,  N. E. Schultz,  N. Shenvi,  A. C. Simmonett,  A. Sodt,  
 D. Stuck,  K. S. Thanthiriwatte,  V. Vanovschi,  Tao Wang,  A. Warshel,  
 C. F. Williams,  Q. Wu,  X. Xu,  W. Zhang

 Please cite Q-Chem as follows:
 Y. Shao et al., Mol. Phys. 113, 184-215 (2015)
 DOI: 10.1080/00268976.2014.952696

 Q-Chem 5.1.1 for Intel X86 EM64T Linux

 Parts of Q-Chem use Armadillo 8.300.2 (Tropical Shenanigans).
 http://arma.sourceforge.net/

 Q-Chem begins on Sat Oct  3 16:10:33 2020  

Host: n0091.mhg0
0

     Scratch files written to /local/scratch/users/yhljason/SCl2_PTPSS-D3_aug-cc-pcVQZ.inp20201003135121//
The previous job contains 0 fragments, simply inherited here
Input Ideriv = 0
Curr. Ideriv = -1
Max.  Ideriv = 0
Analytic post-HF gradients are not available with non-HF exchange
Input Ideriv = 0
Curr. Ideriv = 0
Max.  Ideriv = 0

Checking the input file for inconsistencies... 	...done.

--------------------------------------------------------------
User input:
--------------------------------------------------------------
$molecule
read
$end

$rem

jobtype sp
method PTPSS-D3
xc_grid 000099000590
basis aug-cc-pcVQZ
max_scf_cycles 200
thresh 14
scf_convergence 8
mem_total 128000
cc_memory 96000
cc_backend xm
mem_static 1500
symmetry false
sym_ignore true
scf_guess read
unrestricted false
scf_algorithm gdm
n_frozen_core 0
$end

$multipole_field
XX 0.0001
$end


--------------------------------------------------------------
 Adding empirical dispersion correction 
 ----------------------------------------------------------------
 Doing -D3(0) with
 s6  =   0.75000
 s8  =   0.87900
 rs6 =   1.54100
 rs8 =   1.00000
 -D3 energy without 3body term =     -0.0003896210 hartrees
 ----------------------------------------------------------------
             Standard Nuclear Orientation (Angstroms)
    I     Atom           X                Y                Z
 ----------------------------------------------------------------
    1      S       0.0000000000     0.0000000000     0.8544000000
    2      Cl      0.0000000000     1.5740000000    -0.4021000000
    3      Cl      0.0000000000    -1.5740000000    -0.4021000000
 ----------------------------------------------------------------
 Nuclear Repulsion Energy =   191.5147432726 hartrees
 There are       25 alpha and       25 beta electrons
 Requested basis set is aug-cc-pCVQZ
 There are 102 shells and 402 basis functions

 Total QAlloc Memory Limit 128000 MB
 Mega-Array Size      1467 MB
 MEM_STATIC part      1500 MB

                       Distance Matrix (Angstroms)
             S (  1)   Cl(  2)
   Cl(  2)  2.014018
   Cl(  3)  2.014018  3.148000
 
 Applying Cartesian multipole field
    Component          Value
    ---------          -----
     (2,0,0)        1.00000E-04
 A cutoff of  1.0D-14 yielded   4666 shell pairs
 There are     73226 function pairs (    124197 Cartesian)
 
 -------------------------------------------------------
 OpenMP Integral Computing Module                       
 Release: version 1.0, May 2013, Q-Chem Inc. Pittsburgh 
 -------------------------------------------------------
 Integral Job Info:
 Integral job number is                      11
 Integral operator is                         1
 short-range coefficients                     0
 long-range coefficients              100000000
 Omega coefficients                           0
 if combine SR and LR in K                    0
 Integral screening is                        0
 Integral computing path is                   2
 max size of driver memory is           3200000
 size of driver memory is               1704330
 size of scratch memory is             29435624
 max col of scratch BK array              50625
 max len of scratch array in speh3         2114
 max len of scratch index in speh4           50
 max int batch size is                      520
 min int batch size is                       52
 fixed nKL is                                22
 max L of basis functions is                  4
 order of int derivative is                   0
 number of shells is                        102
 number of basis is                         522
 number of cartesian basis is               522
 number of contracted shell pairs          4666
 number of primitive shell pairs          20235
 maxK2 (contraction) of shell pair          169
 max number of K2 of shell pair               1
 max number of CS2 of shell pair            435
 max number of PS2 of shell pair           3042
 mem total for path MDJ                  998488
 -------------------------------------------------------
 Smallest overlap matrix eigenvalue = 2.47E-05
 Guess MOs from SCF MO coefficient file

 -----------------------------------------------------------------------
  General SCF calculation program by
  Eric Jon Sundstrom, Paul Horn, Yuezhi Mao, Dmitri Zuev, Alec White,
  David Stuck, Shaama M.S., Shane Yost, Joonho Lee, David Small,
  Daniel Levine, Susi Lehtola, Hugh Burton, Evgeny Epifanovsky
 -----------------------------------------------------------------------
 Exchange:     0.5000 Hartree-Fock + 0.5000 PTPSS-D3
 Correlation:  0.6250 PTPSS-D3
 Using Euler-Maclaurin-Lebedev (99,590) quadrature formula
 Dispersion:   Grimme D3
 using 8 threads for integral computing
 -------------------------------------------------------
 OpenMP Integral computing Module                
 Release: version 2.0, May 2017, Q-Chem Inc. Pleasanton 
 -------------------------------------------------------
 -------------------------------------------------------
 OpenMP BLAS3 based DFT computing Module                
 Release: version 1.0, May 2013, Q-Chem Inc. Pittsburgh 
 -------------------------------------------------------
 A restricted SCF calculation will be
 performed using GDM
 SCF converges when RMS gradient is below 1.0e-08
 ---------------------------------------
  Cycle       Energy        RMS Gradient
 ---------------------------------------
    1   -1317.9938253652      3.15e-04   Normal BFGS step
    2   -1317.9938262446      6.19e-05   Normal BFGS step
    3   -1317.9938263052      3.31e-05   Normal BFGS step
    4   -1317.9938263117      1.07e-05   Normal BFGS step
    5   -1317.9938263125      4.77e-06   Normal BFGS step
    6   -1317.9938263126      2.55e-06   Normal BFGS step
    7   -1317.9938263126      4.46e-07   Normal BFGS step
    8   -1317.9938263126      9.28e-08   Normal BFGS step
    9   -1317.9938263126      2.17e-08   Normal BFGS step
   10   -1317.9938263126      4.57e-09  Convergence criterion met
 ---------------------------------------
 SCF time:   CPU 12335.33s  wall 1557.00s 
 SCF   energy in the final basis set =    -1317.9938263126
 Total energy in the final basis set =    -1317.9938263126
 
 Components of the MP2 correlation energy:
        aaaa  correlation energy =         0.0000000000 au
        abab  correlation energy =        -0.5540115723 au
        bbbb  correlation energy =         0.0000000000 au
        non-Brillouin singles    =        -0.0000000000 au

 Total  MP2   correlation energy =                    -0.55401157 au
        MP2         total energy =                 -1318.54783788 au
 
 --------------------------------------------------------------
 
                    Orbital Energies (a.u.)
 --------------------------------------------------------------
 
 Alpha MOs
 -- Occupied --
*******-102.918 -90.228  -9.943  -9.943  -8.448  -7.565  -7.565
 -7.558  -7.558  -7.558  -7.558  -6.279  -6.276  -6.269  -1.035
 -0.962  -0.769  -0.532  -0.495  -0.475  -0.413  -0.403  -0.396
 -0.302
 -- Virtual --
 -0.040  -0.026   0.035   0.046   0.050   0.059   0.078   0.086
  0.091   0.091   0.092   0.121   0.158   0.165   0.170   0.174
  0.191   0.207   0.216   0.236   0.239   0.246   0.279   0.284
  0.284   0.294   0.302   0.308   0.340   0.347   0.364   0.415
  0.418   0.421   0.432   0.437   0.474   0.480   0.487   0.488
  0.489   0.510   0.513   0.538   0.544   0.549   0.550   0.560
  0.582   0.596   0.612   0.650   0.651   0.661   0.680   0.709
  0.720   0.724   0.754   0.771   0.775   0.830   0.846   0.873
  0.873   0.913   0.919   0.949   0.963   0.983   1.025   1.034
  1.053   1.062   1.066   1.075   1.128   1.240   1.249   1.269
  1.296   1.313   1.333   1.350   1.370   1.417   1.423   1.431
  1.448   1.452   1.495   1.497   1.503   1.511   1.526   1.535
  1.542   1.550   1.574   1.592   1.594   1.609   1.615   1.624
  1.644   1.650   1.681   1.695   1.759   1.764   1.772   1.791
  1.817   1.880   1.898   1.900   1.916   1.932   1.937   1.949
  1.951   1.958   1.970   2.006   2.032   2.050   2.051   2.079
  2.095   2.106   2.136   2.196   2.196   2.211   2.254   2.291
  2.307   2.317   2.351   2.392   2.395   2.432   2.506   2.530
  2.664   2.675   2.693   2.709   2.755   2.815   2.992   3.017
  3.341   3.400   3.476   3.530   3.535   3.565   3.638   3.678
  3.692   3.725   3.725   3.728   3.753   3.760   3.788   3.808
  3.871   3.893   3.926   3.950   3.951   3.952   3.956   3.992
  4.088   4.090   4.106   4.125   4.297   4.438   4.453   4.466
  4.475   4.494   4.495   4.498   4.508   4.523   4.526   4.532
  4.540   4.548   4.569   4.575   4.594   4.603   4.626   4.631
  4.638   4.648   4.671   4.674   4.678   4.701   4.786   4.826
  4.888   4.920   4.949   4.961   5.098   5.158   5.377   5.408
  5.743   5.819   5.839   5.888   6.045   6.061   6.586   6.649
  8.517   9.882   9.904   9.961  10.030  10.033  10.459  10.652
 11.757  11.759  11.771  11.800  11.894  11.915  11.926  12.076
 12.438  12.445  15.961  16.367  16.542  17.769  17.774  17.778
 17.865  18.358  18.363  18.393  18.409  18.430  18.458  18.463
 18.560  18.623  21.204  21.204  21.206  21.211  21.223  21.229
 21.229  21.232  21.269  21.276  21.281  21.293  21.297  21.297
 28.292  31.468  31.508  31.534  31.713  31.934  33.657  33.775
 37.274  37.274  37.282  37.301  37.372  37.385  37.391  37.491
 37.654  37.679  45.713  46.062  46.207  51.513  51.532  51.537
 51.604  52.054  52.078  55.286  55.286  55.291  55.292  55.297
 55.298  55.300  55.302  55.303  64.901  64.902  64.902  64.902
 64.902  64.902  64.904  64.904  64.904  64.904  64.907  64.907
 64.908  64.908  64.913  64.913  64.913  64.913  65.419  65.425
 65.435  65.437  65.450  65.497  65.497  75.269  75.269  75.270
 75.273  75.279  75.281  75.282  75.283  75.302  75.306  75.308
 75.311  75.313  75.314  82.292  93.243  93.271  93.289  93.411
 93.595  97.625  97.767 110.118 110.118 110.123 110.137 110.190
110.199 110.203 110.274 110.369 110.391 145.316 145.551 145.649
165.752 165.765 165.768 165.807 166.083 166.096 387.943 455.422
456.016
 --------------------------------------------------------------
 
          Ground-State Mulliken Net Atomic Charges

     Atom                 Charge (a.u.)
  ----------------------------------------
      1 S                     0.162035
      2 Cl                   -0.081018
      3 Cl                   -0.081018
  ----------------------------------------
  Sum of atomic charges =    -0.000000

 -----------------------------------------------------------------
                    Cartesian Multipole Moments
 -----------------------------------------------------------------
    Charge (ESU x 10^10)
                -0.0000
    Dipole Moment (Debye)
         X       0.0000      Y       0.0000      Z       0.4113
       Tot       0.4113
    Quadrupole Moments (Debye-Ang)
        XX     -39.1578     XY      -0.0000     YY     -36.5903
        XZ      -0.0000     YZ       0.0000     ZZ     -36.2156
    Octopole Moments (Debye-Ang^2)
       XXX       0.0000    XXY       0.0000    XYY       0.0000
       YYY       0.0000    XXZ      -1.5577    XYZ       0.0000
       YYZ      -3.6221    XZZ       0.0000    YZZ       0.0000
       ZZZ      -0.9409
    Hexadecapole Moments (Debye-Ang^3)
      XXXX     -47.3217   XXXY      -0.0000   XXYY     -79.0860
      XYYY       0.0000   YYYY    -395.5806   XXXZ       0.0000
      XXYZ       0.0000   XYYZ       0.0000   YYYZ      -0.0000
      XXZZ     -30.1220   XYZZ      -0.0000   YYZZ     -81.5449
      XZZZ      -0.0000   YZZZ       0.0000   ZZZZ    -117.4249
 -----------------------------------------------------------------
Archival summary:
1\1\n0091.mhg0\SP\ProcedureUnspecified\BasisUnspecified\l21\yhljason\SatOct317:32:372020SatOct317:32:372020\0\\#,ProcedureUnspecified,BasisUnspecified,\\0,1\S\Cl,1,2.01402\Cl,1,2.01402,2,102.8\\\@

 Total job time:  4924.02s(wall), 38718.68s(cpu) 
 Sat Oct  3 17:32:37 2020

        *************************************************************
        *                                                           *
        *  Thank you very much for using Q-Chem.  Have a nice day.  *
        *                                                           *
        *************************************************************


 
User input: 4 of 8 
 
Q-Chem Developer Version!
                  Welcome to Q-Chem
     A Quantum Leap Into The Future Of Chemistry


 Q-Chem 5.1, Q-Chem, Inc., Pleasanton, CA (2018)

 Yihan Shao,  Zhengting Gan,  E. Epifanovsky,  A. T. B. Gilbert,  M. Wormit,  
 J. Kussmann,  A. W. Lange,  A. Behn,  Jia Deng,  Xintian Feng,  D. Ghosh,  
 M. Goldey,  P. R. Horn,  L. D. Jacobson,  I. Kaliman,  T. Kus,  A. Landau,  
 Jie Liu,  E. I. Proynov,  R. M. Richard,  R. P. Steele,  E. J. Sundstrom,  
 H. L. Woodcock III,  P. M. Zimmerman,  D. Zuev,  B. Albrecht,  E. Alguire,  
 S. A. Baeppler,  D. Barton,  Z. Benda,  Y. A. Bernard,  E. J. Berquist,  
 K. B. Bravaya,  H. Burton,  D. Casanova,  Chun-Min Chang,  Yunqing Chen,  
 A. Chien,  K. D. Closser,  M. P. Coons,  S. Coriani,  S. Dasgupta,  
 A. L. Dempwolff,  M. Diedenhofen,  Hainam Do,  R. G. Edgar,  Po-Tung Fang,  
 S. Faraji,  S. Fatehi,  Qingguo Feng,  K. D. Fenk,  J. Fosso-Tande,  
 Qinghui Ge,  A. Ghysels,  G. Gidofalvi,  J. Gomes,  J. Gonthier,  A. Gunina,  
 D. Hait,  M. W. D. Hanson-Heine,  P. H. P. Harbach,  A. W. Hauser,  
 J. E. Herr,  E. G. Hohenstein,  Z. C. Holden,  Kerwin Hui,  B. C. Huynh,  
 T.-C. Jagau,  Hyunjun Ji,  B. Kaduk,  K. Khistyaev,  Jaehoon Kim,  
 P. Klunzinger,  K. Koh,  D. Kosenkov,  L. Koulias,  T. Kowalczyk,  
 C. M. Krauter,  A. Kunitsa,  Ka Un Lao,  A. Laurent,  K. V. Lawler,  
 Joonho Lee,  D. Lefrancois,  S. Lehtola,  D. S. Levine,  Yi-Pei Li,  
 You-Sheng Lin,  Fenglai Liu,  E. Livshits,  A. Luenser,  P. Manohar,  
 E. Mansoor,  S. F. Manzer,  Shan-Ping Mao,  Yuezhi Mao,  N. Mardirossian,  
 A. V. Marenich,  T. Markovich,  L. A. Martinez-Martinez,  S. A. Maurer,  
 N. J. Mayhall,  S. C. McKenzie,  J.-M. Mewes,  A. F. Morrison,  
 J. W. Mullinax,  K. Nanda,  T. S. Nguyen-Beck,  R. Olivares-Amaya,  
 J. A. Parkhill,  T. M. Perrine,  F. Plasser,  P. Pokhilko,  S. Prager,  
 A. Prociuk,  E. Ramos,  D. R. Rehn,  F. Rob,  M. Schneider,  N. Sergueev,  
 S. M. Sharada,  S. Sharma,  D. W. Small,  T. Stauch,  T. Stein,  
 Yu-Chuan Su,  A. J. W. Thom,  A. Tkatchenko,  T. Tsuchimochi,  N. M. Tubman,  
 L. Vogt,  M. L. Vidal,  O. Vydrov,  M. A. Watson,  J. Wenzel,  
 M. de Wergifosse,  T. A. Wesolowski,  A. White,  J. Witte,  A. Yamada,  
 Jun Yang,  K. Yao,  S. Yeganeh,  S. R. Yost,  Zhi-Qiang You,  A. Zech,  
 Igor Ying Zhang,  Xing Zhang,  Yan Zhao,  Ying Zhu,  B. R. Brooks,  
 G. K. L. Chan,  C. J. Cramer,  M. S. Gordon,  W. J. Hehre,  A. Klamt,  
 M. W. Schmidt,  C. D. Sherrill,  D. G. Truhlar,  A. Aspuru-Guzik,  R. Baer,  
 A. T. Bell,  N. A. Besley,  Jeng-Da Chai,  A. E. DePrince, III,  
 R. A. DiStasio Jr.,  A. Dreuw,  B. D. Dunietz,  T. R. Furlani,  
 Chao-Ping Hsu,  Yousung Jung,  Jing Kong,  D. S. Lambrecht,  WanZhen Liang,  
 C. Ochsenfeld,  V. A. Rassolov,  L. V. Slipchenko,  J. E. Subotnik,  
 T. Van Voorhis,  J. M. Herbert,  A. I. Krylov,  P. M. W. Gill,  M. Head-Gordon

 Contributors to earlier versions of Q-Chem not listed above: 
 R. D. Adamson,  B. Austin,  J. Baker,  G. J. O. Beran,  K. Brandhorst,  
 S. T. Brown,  E. F. C. Byrd,  A. K. Chakraborty,  C.-L. Cheng,  
 Siu Hung Chien,  D. M. Chipman,  D. L. Crittenden,  H. Dachsel,  
 R. J. Doerksen,  A. D. Dutoi,  L. Fusti-Molnar,  W. A. Goddard III,  
 A. Golubeva-Zadorozhnaya,  S. R. Gwaltney,  G. Hawkins,  A. Heyden,  
 S. Hirata,  G. Kedziora,  F. J. Keil,  C. Kelley,  Jihan Kim,  R. A. King,  
 R. Z. Khaliullin,  P. P. Korambath,  W. Kurlancheek,  A. M. Lee,  M. S. Lee,  
 S. V. Levchenko,  Ching Yeh Lin,  D. Liotard,  R. C. Lochan,  I. Lotan,  
 P. E. Maslen,  N. Nair,  D. P. O'Neill,  D. Neuhauser,  E. Neuscamman,  
 C. M. Oana,  R. Olson,  B. Peters,  R. Peverati,  P. A. Pieniazek,  
 Y. M. Rhee,  J. Ritchie,  M. A. Rohrdanz,  E. Rosta,  N. J. Russ,  
 H. F. Schaefer III,  N. E. Schultz,  N. Shenvi,  A. C. Simmonett,  A. Sodt,  
 D. Stuck,  K. S. Thanthiriwatte,  V. Vanovschi,  Tao Wang,  A. Warshel,  
 C. F. Williams,  Q. Wu,  X. Xu,  W. Zhang

 Please cite Q-Chem as follows:
 Y. Shao et al., Mol. Phys. 113, 184-215 (2015)
 DOI: 10.1080/00268976.2014.952696

 Q-Chem 5.1.1 for Intel X86 EM64T Linux

 Parts of Q-Chem use Armadillo 8.300.2 (Tropical Shenanigans).
 http://arma.sourceforge.net/

 Q-Chem begins on Sat Oct  3 17:32:37 2020  

Host: n0091.mhg0
0

     Scratch files written to /local/scratch/users/yhljason/SCl2_PTPSS-D3_aug-cc-pcVQZ.inp20201003135121//
The previous job contains 0 fragments, simply inherited here
Input Ideriv = 0
Curr. Ideriv = -1
Max.  Ideriv = 0
Analytic post-HF gradients are not available with non-HF exchange
Input Ideriv = 0
Curr. Ideriv = 0
Max.  Ideriv = 0

Checking the input file for inconsistencies... 	...done.

--------------------------------------------------------------
User input:
--------------------------------------------------------------
$molecule
read
$end

$rem

jobtype sp
method PTPSS-D3
xc_grid 000099000590
basis aug-cc-pcVQZ
max_scf_cycles 200
thresh 14
scf_convergence 8
mem_total 128000
cc_memory 96000
cc_backend xm
mem_static 1500
symmetry false
sym_ignore true
scf_guess read
unrestricted false
scf_algorithm gdm
n_frozen_core 0
$end

$multipole_field
XX -0.0001
$end


--------------------------------------------------------------
 Adding empirical dispersion correction 
 ----------------------------------------------------------------
 Doing -D3(0) with
 s6  =   0.75000
 s8  =   0.87900
 rs6 =   1.54100
 rs8 =   1.00000
 -D3 energy without 3body term =     -0.0003896210 hartrees
 ----------------------------------------------------------------
             Standard Nuclear Orientation (Angstroms)
    I     Atom           X                Y                Z
 ----------------------------------------------------------------
    1      S       0.0000000000     0.0000000000     0.8544000000
    2      Cl      0.0000000000     1.5740000000    -0.4021000000
    3      Cl      0.0000000000    -1.5740000000    -0.4021000000
 ----------------------------------------------------------------
 Nuclear Repulsion Energy =   191.5147432726 hartrees
 There are       25 alpha and       25 beta electrons
 Requested basis set is aug-cc-pCVQZ
 There are 102 shells and 402 basis functions

 Total QAlloc Memory Limit 128000 MB
 Mega-Array Size      1467 MB
 MEM_STATIC part      1500 MB

                       Distance Matrix (Angstroms)
             S (  1)   Cl(  2)
   Cl(  2)  2.014018
   Cl(  3)  2.014018  3.148000
 
 Applying Cartesian multipole field
    Component          Value
    ---------          -----
     (2,0,0)       -1.00000E-04
 A cutoff of  1.0D-14 yielded   4666 shell pairs
 There are     73226 function pairs (    124197 Cartesian)
 
 -------------------------------------------------------
 OpenMP Integral Computing Module                       
 Release: version 1.0, May 2013, Q-Chem Inc. Pittsburgh 
 -------------------------------------------------------
 Integral Job Info:
 Integral job number is                      11
 Integral operator is                         1
 short-range coefficients                     0
 long-range coefficients              100000000
 Omega coefficients                           0
 if combine SR and LR in K                    0
 Integral screening is                        0
 Integral computing path is                   2
 max size of driver memory is           3200000
 size of driver memory is               1704330
 size of scratch memory is             29435624
 max col of scratch BK array              50625
 max len of scratch array in speh3         2114
 max len of scratch index in speh4           50
 max int batch size is                      520
 min int batch size is                       52
 fixed nKL is                                22
 max L of basis functions is                  4
 order of int derivative is                   0
 number of shells is                        102
 number of basis is                         522
 number of cartesian basis is               522
 number of contracted shell pairs          4666
 number of primitive shell pairs          20235
 maxK2 (contraction) of shell pair          169
 max number of K2 of shell pair               1
 max number of CS2 of shell pair            435
 max number of PS2 of shell pair           3042
 mem total for path MDJ                  998488
 -------------------------------------------------------
 Smallest overlap matrix eigenvalue = 2.47E-05
 Guess MOs from SCF MO coefficient file

 -----------------------------------------------------------------------
  General SCF calculation program by
  Eric Jon Sundstrom, Paul Horn, Yuezhi Mao, Dmitri Zuev, Alec White,
  David Stuck, Shaama M.S., Shane Yost, Joonho Lee, David Small,
  Daniel Levine, Susi Lehtola, Hugh Burton, Evgeny Epifanovsky
 -----------------------------------------------------------------------
 Exchange:     0.5000 Hartree-Fock + 0.5000 PTPSS-D3
 Correlation:  0.6250 PTPSS-D3
 Using Euler-Maclaurin-Lebedev (99,590) quadrature formula
 Dispersion:   Grimme D3
 using 8 threads for integral computing
 -------------------------------------------------------
 OpenMP Integral computing Module                
 Release: version 2.0, May 2017, Q-Chem Inc. Pleasanton 
 -------------------------------------------------------
 -------------------------------------------------------
 OpenMP BLAS3 based DFT computing Module                
 Release: version 1.0, May 2013, Q-Chem Inc. Pittsburgh 
 -------------------------------------------------------
 A restricted SCF calculation will be
 performed using GDM
 SCF converges when RMS gradient is below 1.0e-08
 ---------------------------------------
  Cycle       Energy        RMS Gradient
 ---------------------------------------
    1   -1317.9880037350      6.35e-04   Normal BFGS step
    2   -1317.9880072540      1.24e-04   Normal BFGS step
    3   -1317.9880074951      6.63e-05   Normal BFGS step
    4   -1317.9880075213      2.15e-05   Normal BFGS step
    5   -1317.9880075243      9.55e-06   Normal BFGS step
    6   -1317.9880075247      5.08e-06   Normal BFGS step
    7   -1317.9880075248      8.99e-07   Normal BFGS step
    8   -1317.9880075248      1.86e-07   Normal BFGS step
    9   -1317.9880075248      4.34e-08   Normal BFGS step
   10   -1317.9880075248      9.10e-09  Convergence criterion met
 ---------------------------------------
 SCF time:   CPU 12281.46s  wall 1550.00s 
 SCF   energy in the final basis set =    -1317.9880075248
 Total energy in the final basis set =    -1317.9880075248
 
 Components of the MP2 correlation energy:
        aaaa  correlation energy =         0.0000000000 au
        abab  correlation energy =        -0.5540141206 au
        bbbb  correlation energy =         0.0000000000 au
        non-Brillouin singles    =        -0.0000000000 au

 Total  MP2   correlation energy =                    -0.55401412 au
        MP2         total energy =                 -1318.54202165 au
 
 --------------------------------------------------------------
 
                    Orbital Energies (a.u.)
 --------------------------------------------------------------
 
 Alpha MOs
 -- Occupied --
*******-102.917 -90.228  -9.942  -9.942  -8.447  -7.564  -7.564
 -7.558  -7.558  -7.557  -7.557  -6.278  -6.276  -6.268  -1.034
 -0.962  -0.769  -0.532  -0.494  -0.474  -0.413  -0.402  -0.395
 -0.301
 -- Virtual --
 -0.039  -0.025   0.037   0.049   0.052   0.065   0.080   0.088
  0.093   0.096   0.097   0.124   0.160   0.167   0.172   0.176
  0.193   0.209   0.218   0.238   0.241   0.247   0.282   0.285
  0.286   0.297   0.303   0.310   0.341   0.350   0.366   0.417
  0.420   0.422   0.434   0.439   0.475   0.482   0.488   0.490
  0.490   0.511   0.513   0.540   0.545   0.550   0.552   0.561
  0.584   0.597   0.613   0.651   0.652   0.662   0.681   0.710
  0.722   0.725   0.755   0.772   0.776   0.831   0.847   0.874
  0.874   0.914   0.921   0.950   0.965   0.984   1.025   1.035
  1.055   1.063   1.067   1.076   1.129   1.241   1.250   1.270
  1.297   1.314   1.334   1.351   1.370   1.418   1.424   1.432
  1.448   1.453   1.496   1.498   1.504   1.512   1.528   1.536
  1.543   1.552   1.575   1.593   1.596   1.610   1.616   1.624
  1.645   1.651   1.682   1.696   1.759   1.765   1.773   1.792
  1.818   1.881   1.898   1.901   1.917   1.932   1.938   1.950
  1.952   1.959   1.971   2.006   2.033   2.051   2.052   2.080
  2.096   2.107   2.137   2.196   2.197   2.212   2.255   2.292
  2.307   2.317   2.352   2.393   2.396   2.433   2.507   2.530
  2.664   2.676   2.694   2.710   2.756   2.816   2.992   3.018
  3.342   3.401   3.477   3.531   3.536   3.566   3.639   3.679
  3.692   3.725   3.726   3.729   3.754   3.761   3.789   3.808
  3.872   3.894   3.927   3.950   3.952   3.953   3.957   3.993
  4.089   4.090   4.106   4.125   4.298   4.439   4.454   4.467
  4.475   4.494   4.496   4.499   4.508   4.524   4.527   4.532
  4.540   4.548   4.570   4.576   4.594   4.603   4.626   4.632
  4.639   4.648   4.672   4.675   4.678   4.701   4.787   4.827
  4.889   4.920   4.950   4.962   5.099   5.159   5.378   5.408
  5.744   5.820   5.840   5.889   6.045   6.062   6.587   6.650
  8.518   9.883   9.904   9.962  10.031  10.034  10.459  10.653
 11.758  11.760  11.772  11.801  11.894  11.915  11.926  12.077
 12.439  12.445  15.962  16.367  16.543  17.770  17.775  17.779
 17.865  18.359  18.364  18.394  18.410  18.431  18.459  18.463
 18.561  18.623  21.204  21.205  21.207  21.211  21.223  21.229
 21.230  21.233  21.269  21.276  21.281  21.293  21.297  21.298
 28.293  31.469  31.508  31.535  31.714  31.934  33.658  33.776
 37.274  37.275  37.282  37.301  37.372  37.386  37.392  37.491
 37.654  37.680  45.714  46.063  46.208  51.514  51.533  51.538
 51.605  52.054  52.078  55.287  55.287  55.292  55.293  55.297
 55.299  55.301  55.303  55.304  64.902  64.902  64.903  64.903
 64.903  64.903  64.904  64.905  64.905  64.905  64.908  64.908
 64.908  64.908  64.913  64.913  64.914  64.914  65.420  65.426
 65.435  65.437  65.451  65.497  65.498  75.270  75.270  75.271
 75.274  75.279  75.282  75.282  75.284  75.303  75.306  75.309
 75.312  75.314  75.314  82.293  93.243  93.272  93.290  93.412
 93.596  97.626  97.768 110.118 110.119 110.124 110.137 110.190
110.200 110.204 110.274 110.370 110.391 145.317 145.552 145.650
165.753 165.765 165.769 165.808 166.084 166.097 387.944 455.423
456.016
 --------------------------------------------------------------
 
          Ground-State Mulliken Net Atomic Charges

     Atom                 Charge (a.u.)
  ----------------------------------------
      1 S                     0.162945
      2 Cl                   -0.081473
      3 Cl                   -0.081473
  ----------------------------------------
  Sum of atomic charges =    -0.000000

 -----------------------------------------------------------------
                    Cartesian Multipole Moments
 -----------------------------------------------------------------
    Charge (ESU x 10^10)
                -0.0000
    Dipole Moment (Debye)
         X       0.0000      Y       0.0000      Z       0.4127
       Tot       0.4127
    Quadrupole Moments (Debye-Ang)
        XX     -39.1070     XY       0.0000     YY     -36.5885
        XZ      -0.0000     YZ      -0.0000     ZZ     -36.2077
    Octopole Moments (Debye-Ang^2)
       XXX      -0.0000    XXY       0.0000    XYY      -0.0000
       YYY       0.0000    XXZ      -1.5478    XYZ      -0.0000
       YYZ      -3.6182    XZZ      -0.0000    YZZ       0.0000
       ZZZ      -0.9361
    Hexadecapole Moments (Debye-Ang^3)
      XXXX     -47.0990   XXXY       0.0000   XXYY     -78.9692
      XYYY       0.0000   YYYY    -395.5166   XXXZ       0.0000
      XXYZ      -0.0000   XYYZ       0.0000   YYYZ      -0.0000
      XXZZ     -30.0471   XYZZ       0.0000   YYZZ     -81.5235
      XZZZ      -0.0000   YZZZ      -0.0000   ZZZZ    -117.3654
 -----------------------------------------------------------------
Archival summary:
1\1\n0091.mhg0\SP\ProcedureUnspecified\BasisUnspecified\l21\yhljason\SatOct318:55:092020SatOct318:55:092020\0\\#,ProcedureUnspecified,BasisUnspecified,\\0,1\S\Cl,1,2.01402\Cl,1,2.01402,2,102.8\\\@

 Total job time:  4951.38s(wall), 38892.98s(cpu) 
 Sat Oct  3 18:55:09 2020

        *************************************************************
        *                                                           *
        *  Thank you very much for using Q-Chem.  Have a nice day.  *
        *                                                           *
        *************************************************************


 
User input: 5 of 8 
 
Q-Chem Developer Version!
                  Welcome to Q-Chem
     A Quantum Leap Into The Future Of Chemistry


 Q-Chem 5.1, Q-Chem, Inc., Pleasanton, CA (2018)

 Yihan Shao,  Zhengting Gan,  E. Epifanovsky,  A. T. B. Gilbert,  M. Wormit,  
 J. Kussmann,  A. W. Lange,  A. Behn,  Jia Deng,  Xintian Feng,  D. Ghosh,  
 M. Goldey,  P. R. Horn,  L. D. Jacobson,  I. Kaliman,  T. Kus,  A. Landau,  
 Jie Liu,  E. I. Proynov,  R. M. Richard,  R. P. Steele,  E. J. Sundstrom,  
 H. L. Woodcock III,  P. M. Zimmerman,  D. Zuev,  B. Albrecht,  E. Alguire,  
 S. A. Baeppler,  D. Barton,  Z. Benda,  Y. A. Bernard,  E. J. Berquist,  
 K. B. Bravaya,  H. Burton,  D. Casanova,  Chun-Min Chang,  Yunqing Chen,  
 A. Chien,  K. D. Closser,  M. P. Coons,  S. Coriani,  S. Dasgupta,  
 A. L. Dempwolff,  M. Diedenhofen,  Hainam Do,  R. G. Edgar,  Po-Tung Fang,  
 S. Faraji,  S. Fatehi,  Qingguo Feng,  K. D. Fenk,  J. Fosso-Tande,  
 Qinghui Ge,  A. Ghysels,  G. Gidofalvi,  J. Gomes,  J. Gonthier,  A. Gunina,  
 D. Hait,  M. W. D. Hanson-Heine,  P. H. P. Harbach,  A. W. Hauser,  
 J. E. Herr,  E. G. Hohenstein,  Z. C. Holden,  Kerwin Hui,  B. C. Huynh,  
 T.-C. Jagau,  Hyunjun Ji,  B. Kaduk,  K. Khistyaev,  Jaehoon Kim,  
 P. Klunzinger,  K. Koh,  D. Kosenkov,  L. Koulias,  T. Kowalczyk,  
 C. M. Krauter,  A. Kunitsa,  Ka Un Lao,  A. Laurent,  K. V. Lawler,  
 Joonho Lee,  D. Lefrancois,  S. Lehtola,  D. S. Levine,  Yi-Pei Li,  
 You-Sheng Lin,  Fenglai Liu,  E. Livshits,  A. Luenser,  P. Manohar,  
 E. Mansoor,  S. F. Manzer,  Shan-Ping Mao,  Yuezhi Mao,  N. Mardirossian,  
 A. V. Marenich,  T. Markovich,  L. A. Martinez-Martinez,  S. A. Maurer,  
 N. J. Mayhall,  S. C. McKenzie,  J.-M. Mewes,  A. F. Morrison,  
 J. W. Mullinax,  K. Nanda,  T. S. Nguyen-Beck,  R. Olivares-Amaya,  
 J. A. Parkhill,  T. M. Perrine,  F. Plasser,  P. Pokhilko,  S. Prager,  
 A. Prociuk,  E. Ramos,  D. R. Rehn,  F. Rob,  M. Schneider,  N. Sergueev,  
 S. M. Sharada,  S. Sharma,  D. W. Small,  T. Stauch,  T. Stein,  
 Yu-Chuan Su,  A. J. W. Thom,  A. Tkatchenko,  T. Tsuchimochi,  N. M. Tubman,  
 L. Vogt,  M. L. Vidal,  O. Vydrov,  M. A. Watson,  J. Wenzel,  
 M. de Wergifosse,  T. A. Wesolowski,  A. White,  J. Witte,  A. Yamada,  
 Jun Yang,  K. Yao,  S. Yeganeh,  S. R. Yost,  Zhi-Qiang You,  A. Zech,  
 Igor Ying Zhang,  Xing Zhang,  Yan Zhao,  Ying Zhu,  B. R. Brooks,  
 G. K. L. Chan,  C. J. Cramer,  M. S. Gordon,  W. J. Hehre,  A. Klamt,  
 M. W. Schmidt,  C. D. Sherrill,  D. G. Truhlar,  A. Aspuru-Guzik,  R. Baer,  
 A. T. Bell,  N. A. Besley,  Jeng-Da Chai,  A. E. DePrince, III,  
 R. A. DiStasio Jr.,  A. Dreuw,  B. D. Dunietz,  T. R. Furlani,  
 Chao-Ping Hsu,  Yousung Jung,  Jing Kong,  D. S. Lambrecht,  WanZhen Liang,  
 C. Ochsenfeld,  V. A. Rassolov,  L. V. Slipchenko,  J. E. Subotnik,  
 T. Van Voorhis,  J. M. Herbert,  A. I. Krylov,  P. M. W. Gill,  M. Head-Gordon

 Contributors to earlier versions of Q-Chem not listed above: 
 R. D. Adamson,  B. Austin,  J. Baker,  G. J. O. Beran,  K. Brandhorst,  
 S. T. Brown,  E. F. C. Byrd,  A. K. Chakraborty,  C.-L. Cheng,  
 Siu Hung Chien,  D. M. Chipman,  D. L. Crittenden,  H. Dachsel,  
 R. J. Doerksen,  A. D. Dutoi,  L. Fusti-Molnar,  W. A. Goddard III,  
 A. Golubeva-Zadorozhnaya,  S. R. Gwaltney,  G. Hawkins,  A. Heyden,  
 S. Hirata,  G. Kedziora,  F. J. Keil,  C. Kelley,  Jihan Kim,  R. A. King,  
 R. Z. Khaliullin,  P. P. Korambath,  W. Kurlancheek,  A. M. Lee,  M. S. Lee,  
 S. V. Levchenko,  Ching Yeh Lin,  D. Liotard,  R. C. Lochan,  I. Lotan,  
 P. E. Maslen,  N. Nair,  D. P. O'Neill,  D. Neuhauser,  E. Neuscamman,  
 C. M. Oana,  R. Olson,  B. Peters,  R. Peverati,  P. A. Pieniazek,  
 Y. M. Rhee,  J. Ritchie,  M. A. Rohrdanz,  E. Rosta,  N. J. Russ,  
 H. F. Schaefer III,  N. E. Schultz,  N. Shenvi,  A. C. Simmonett,  A. Sodt,  
 D. Stuck,  K. S. Thanthiriwatte,  V. Vanovschi,  Tao Wang,  A. Warshel,  
 C. F. Williams,  Q. Wu,  X. Xu,  W. Zhang

 Please cite Q-Chem as follows:
 Y. Shao et al., Mol. Phys. 113, 184-215 (2015)
 DOI: 10.1080/00268976.2014.952696

 Q-Chem 5.1.1 for Intel X86 EM64T Linux

 Parts of Q-Chem use Armadillo 8.300.2 (Tropical Shenanigans).
 http://arma.sourceforge.net/

 Q-Chem begins on Sat Oct  3 18:55:09 2020  

Host: n0091.mhg0
0

     Scratch files written to /local/scratch/users/yhljason/SCl2_PTPSS-D3_aug-cc-pcVQZ.inp20201003135121//
The previous job contains 0 fragments, simply inherited here
Input Ideriv = 0
Curr. Ideriv = -1
Max.  Ideriv = 0
Analytic post-HF gradients are not available with non-HF exchange
Input Ideriv = 0
Curr. Ideriv = 0
Max.  Ideriv = 0

Checking the input file for inconsistencies... 	...done.

--------------------------------------------------------------
User input:
--------------------------------------------------------------
$molecule
read
$end

$rem

jobtype sp
method PTPSS-D3
xc_grid 000099000590
basis aug-cc-pcVQZ
max_scf_cycles 200
thresh 14
scf_convergence 8
mem_total 128000
cc_memory 96000
cc_backend xm
mem_static 1500
symmetry false
sym_ignore true
scf_guess read
unrestricted false
scf_algorithm gdm
n_frozen_core 0
$end

$multipole_field
YY 0.0001
$end


--------------------------------------------------------------
 Adding empirical dispersion correction 
 ----------------------------------------------------------------
 Doing -D3(0) with
 s6  =   0.75000
 s8  =   0.87900
 rs6 =   1.54100
 rs8 =   1.00000
 -D3 energy without 3body term =     -0.0003896210 hartrees
 ----------------------------------------------------------------
             Standard Nuclear Orientation (Angstroms)
    I     Atom           X                Y                Z
 ----------------------------------------------------------------
    1      S       0.0000000000     0.0000000000     0.8544000000
    2      Cl      0.0000000000     1.5740000000    -0.4021000000
    3      Cl      0.0000000000    -1.5740000000    -0.4021000000
 ----------------------------------------------------------------
 Nuclear Repulsion Energy =   191.5147432726 hartrees
 There are       25 alpha and       25 beta electrons
 Requested basis set is aug-cc-pCVQZ
 There are 102 shells and 402 basis functions

 Total QAlloc Memory Limit 128000 MB
 Mega-Array Size      1467 MB
 MEM_STATIC part      1500 MB

                       Distance Matrix (Angstroms)
             S (  1)   Cl(  2)
   Cl(  2)  2.014018
   Cl(  3)  2.014018  3.148000
 
 Applying Cartesian multipole field
    Component          Value
    ---------          -----
     (0,2,0)        1.00000E-04
 Nucleus-field energy     =     0.0300805732 hartrees
 A cutoff of  1.0D-14 yielded   4666 shell pairs
 There are     73226 function pairs (    124197 Cartesian)
 
 -------------------------------------------------------
 OpenMP Integral Computing Module                       
 Release: version 1.0, May 2013, Q-Chem Inc. Pittsburgh 
 -------------------------------------------------------
 Integral Job Info:
 Integral job number is                      11
 Integral operator is                         1
 short-range coefficients                     0
 long-range coefficients              100000000
 Omega coefficients                           0
 if combine SR and LR in K                    0
 Integral screening is                        0
 Integral computing path is                   2
 max size of driver memory is           3200000
 size of driver memory is               1704330
 size of scratch memory is             29435624
 max col of scratch BK array              50625
 max len of scratch array in speh3         2114
 max len of scratch index in speh4           50
 max int batch size is                      520
 min int batch size is                       52
 fixed nKL is                                22
 max L of basis functions is                  4
 order of int derivative is                   0
 number of shells is                        102
 number of basis is                         522
 number of cartesian basis is               522
 number of contracted shell pairs          4666
 number of primitive shell pairs          20235
 maxK2 (contraction) of shell pair          169
 max number of K2 of shell pair               1
 max number of CS2 of shell pair            435
 max number of PS2 of shell pair           3042
 mem total for path MDJ                  998488
 -------------------------------------------------------
 Smallest overlap matrix eigenvalue = 2.47E-05
 Guess MOs from SCF MO coefficient file

 -----------------------------------------------------------------------
  General SCF calculation program by
  Eric Jon Sundstrom, Paul Horn, Yuezhi Mao, Dmitri Zuev, Alec White,
  David Stuck, Shaama M.S., Shane Yost, Joonho Lee, David Small,
  Daniel Levine, Susi Lehtola, Hugh Burton, Evgeny Epifanovsky
 -----------------------------------------------------------------------
 Exchange:     0.5000 Hartree-Fock + 0.5000 PTPSS-D3
 Correlation:  0.6250 PTPSS-D3
 Using Euler-Maclaurin-Lebedev (99,590) quadrature formula
 Dispersion:   Grimme D3
 using 8 threads for integral computing
 -------------------------------------------------------
 OpenMP Integral computing Module                
 Release: version 2.0, May 2017, Q-Chem Inc. Pleasanton 
 -------------------------------------------------------
 -------------------------------------------------------
 OpenMP BLAS3 based DFT computing Module                
 Release: version 1.0, May 2013, Q-Chem Inc. Pittsburgh 
 -------------------------------------------------------
 A restricted SCF calculation will be
 performed using GDM
 SCF converges when RMS gradient is below 1.0e-08
 ---------------------------------------
  Cycle       Energy        RMS Gradient
 ---------------------------------------
    1   -1317.9936353006      8.08e-04   Normal BFGS step
    2   -1317.9936395946      6.79e-04   Normal BFGS step
    3   -1317.9936419913      1.34e-04   Normal BFGS step
    4   -1317.9936420806      7.06e-05   Normal BFGS step
    5   -1317.9936421184      1.29e-05   Normal BFGS step
    6   -1317.9936421198      3.52e-06   Normal BFGS step
    7   -1317.9936421201      7.11e-07   Normal BFGS step
    8   -1317.9936421201      2.79e-07   Normal BFGS step
    9   -1317.9936421201      1.96e-08   Normal BFGS step
   10   -1317.9936421201      8.39e-09  Convergence criterion met
 ---------------------------------------
 SCF time:   CPU 12450.89s  wall 1572.00s 
 SCF   energy in the final basis set =    -1317.9936421201
 Total energy in the final basis set =    -1317.9936421201
 
 Components of the MP2 correlation energy:
        aaaa  correlation energy =         0.0000000000 au
        abab  correlation energy =        -0.5540015367 au
        bbbb  correlation energy =         0.0000000000 au
        non-Brillouin singles    =        -0.0000000000 au

 Total  MP2   correlation energy =                    -0.55400154 au
        MP2         total energy =                 -1318.54764366 au
 
 --------------------------------------------------------------
 
                    Orbital Energies (a.u.)
 --------------------------------------------------------------
 
 Alpha MOs
 -- Occupied --
*******-102.919 -90.229  -9.943  -9.943  -8.448  -7.566  -7.566
 -7.559  -7.559  -7.558  -7.558  -6.279  -6.277  -6.269  -1.036
 -0.963  -0.770  -0.533  -0.495  -0.475  -0.414  -0.403  -0.397
 -0.302
 -- Virtual --
 -0.041  -0.027   0.033   0.042   0.050   0.061   0.075   0.085
  0.089   0.090   0.093   0.119   0.157   0.165   0.167   0.174
  0.190   0.207   0.214   0.235   0.238   0.244   0.278   0.282
  0.283   0.293   0.299   0.307   0.338   0.347   0.364   0.415
  0.418   0.420   0.431   0.436   0.473   0.480   0.486   0.487
  0.487   0.509   0.511   0.538   0.543   0.548   0.549   0.559
  0.582   0.595   0.611   0.649   0.651   0.660   0.679   0.709
  0.720   0.723   0.753   0.771   0.774   0.830   0.845   0.872
  0.873   0.912   0.919   0.948   0.963   0.981   1.023   1.033
  1.052   1.061   1.065   1.073   1.126   1.240   1.248   1.269
  1.295   1.312   1.333   1.349   1.369   1.416   1.422   1.430
  1.447   1.451   1.494   1.496   1.502   1.511   1.526   1.535
  1.542   1.550   1.573   1.591   1.594   1.608   1.614   1.623
  1.644   1.649   1.680   1.694   1.758   1.763   1.772   1.790
  1.816   1.879   1.897   1.899   1.915   1.931   1.936   1.948
  1.950   1.958   1.969   2.005   2.031   2.049   2.050   2.079
  2.094   2.105   2.135   2.195   2.195   2.210   2.253   2.290
  2.305   2.316   2.350   2.391   2.394   2.431   2.505   2.529
  2.663   2.674   2.692   2.709   2.754   2.814   2.991   3.016
  3.341   3.399   3.476   3.530   3.534   3.564   3.637   3.677
  3.691   3.724   3.725   3.728   3.752   3.759   3.787   3.807
  3.871   3.893   3.925   3.949   3.950   3.952   3.956   3.991
  4.087   4.089   4.105   4.124   4.296   4.437   4.452   4.465
  4.474   4.493   4.494   4.498   4.507   4.523   4.525   4.531
  4.539   4.547   4.569   4.574   4.593   4.602   4.625   4.631
  4.637   4.647   4.671   4.673   4.677   4.700   4.785   4.825
  4.887   4.919   4.948   4.961   5.097   5.158   5.376   5.407
  5.742   5.818   5.838   5.888   6.044   6.060   6.585   6.648
  8.517   9.881   9.903   9.960  10.029  10.033  10.458  10.651
 11.757  11.759  11.771  11.799  11.893  11.914  11.925  12.075
 12.437  12.444  15.961  16.366  16.542  17.768  17.774  17.777
 17.864  18.357  18.362  18.392  18.409  18.429  18.458  18.462
 18.560  18.622  21.203  21.203  21.205  21.210  21.222  21.228
 21.228  21.232  21.268  21.275  21.280  21.292  21.296  21.297
 28.291  31.468  31.507  31.533  31.713  31.933  33.656  33.774
 37.273  37.273  37.281  37.300  37.371  37.384  37.391  37.490
 37.653  37.678  45.713  46.061  46.207  51.512  51.531  51.536
 51.603  52.053  52.077  55.285  55.286  55.291  55.291  55.296
 55.298  55.299  55.301  55.302  64.900  64.901  64.901  64.901
 64.901  64.901  64.903  64.903  64.903  64.904  64.906  64.906
 64.907  64.907  64.912  64.912  64.912  64.912  65.418  65.424
 65.434  65.436  65.450  65.496  65.496  75.268  75.269  75.270
 75.272  75.278  75.281  75.281  75.282  75.301  75.305  75.308
 75.310  75.312  75.313  82.291  93.242  93.270  93.288  93.410
 93.594  97.624  97.766 110.117 110.117 110.122 110.136 110.189
110.198 110.202 110.273 110.368 110.390 145.316 145.551 145.648
165.751 165.764 165.767 165.806 166.082 166.095 387.943 455.421
456.015
 --------------------------------------------------------------
 
          Ground-State Mulliken Net Atomic Charges

     Atom                 Charge (a.u.)
  ----------------------------------------
      1 S                     0.165087
      2 Cl                   -0.082543
      3 Cl                   -0.082543
  ----------------------------------------
  Sum of atomic charges =    -0.000000

 -----------------------------------------------------------------
                    Cartesian Multipole Moments
 -----------------------------------------------------------------
    Charge (ESU x 10^10)
                -0.0000
    Dipole Moment (Debye)
         X      -0.0000      Y       0.0000      Z       0.4226
       Tot       0.4226
    Quadrupole Moments (Debye-Ang)
        XX     -39.1333     XY       0.0000     YY     -36.7459
        XZ       0.0000     YZ       0.0000     ZZ     -36.1966
    Octopole Moments (Debye-Ang^2)
       XXX      -0.0000    XXY      -0.0000    XYY       0.0000
       YYY       0.0000    XXZ      -1.5427    XYZ      -0.0000
       YYZ      -3.5708    XZZ      -0.0000    YZZ      -0.0000
       ZZZ      -0.8997
    Hexadecapole Moments (Debye-Ang^3)
      XXXX     -47.2152   XXXY       0.0000   XXYY     -79.1477
      XYYY      -0.0000   YYYY    -396.9905   XXXZ       0.0000
      XXYZ       0.0000   XYYZ       0.0000   YYYZ       0.0000
      XXZZ     -30.0728   XYZZ       0.0000   YYZZ     -81.6519
      XZZZ       0.0000   YZZZ       0.0000   ZZZZ    -117.3192
 -----------------------------------------------------------------
Archival summary:
1\1\n0091.mhg0\SP\ProcedureUnspecified\BasisUnspecified\l21\yhljason\SatOct320:16:422020SatOct320:16:422020\0\\#,ProcedureUnspecified,BasisUnspecified,\\0,1\S\Cl,1,2.01402\Cl,1,2.01402,2,102.8\\\@

 Total job time:  4892.57s(wall), 38469.42s(cpu) 
 Sat Oct  3 20:16:42 2020

        *************************************************************
        *                                                           *
        *  Thank you very much for using Q-Chem.  Have a nice day.  *
        *                                                           *
        *************************************************************


 
User input: 6 of 8 
 
Q-Chem Developer Version!
                  Welcome to Q-Chem
     A Quantum Leap Into The Future Of Chemistry


 Q-Chem 5.1, Q-Chem, Inc., Pleasanton, CA (2018)

 Yihan Shao,  Zhengting Gan,  E. Epifanovsky,  A. T. B. Gilbert,  M. Wormit,  
 J. Kussmann,  A. W. Lange,  A. Behn,  Jia Deng,  Xintian Feng,  D. Ghosh,  
 M. Goldey,  P. R. Horn,  L. D. Jacobson,  I. Kaliman,  T. Kus,  A. Landau,  
 Jie Liu,  E. I. Proynov,  R. M. Richard,  R. P. Steele,  E. J. Sundstrom,  
 H. L. Woodcock III,  P. M. Zimmerman,  D. Zuev,  B. Albrecht,  E. Alguire,  
 S. A. Baeppler,  D. Barton,  Z. Benda,  Y. A. Bernard,  E. J. Berquist,  
 K. B. Bravaya,  H. Burton,  D. Casanova,  Chun-Min Chang,  Yunqing Chen,  
 A. Chien,  K. D. Closser,  M. P. Coons,  S. Coriani,  S. Dasgupta,  
 A. L. Dempwolff,  M. Diedenhofen,  Hainam Do,  R. G. Edgar,  Po-Tung Fang,  
 S. Faraji,  S. Fatehi,  Qingguo Feng,  K. D. Fenk,  J. Fosso-Tande,  
 Qinghui Ge,  A. Ghysels,  G. Gidofalvi,  J. Gomes,  J. Gonthier,  A. Gunina,  
 D. Hait,  M. W. D. Hanson-Heine,  P. H. P. Harbach,  A. W. Hauser,  
 J. E. Herr,  E. G. Hohenstein,  Z. C. Holden,  Kerwin Hui,  B. C. Huynh,  
 T.-C. Jagau,  Hyunjun Ji,  B. Kaduk,  K. Khistyaev,  Jaehoon Kim,  
 P. Klunzinger,  K. Koh,  D. Kosenkov,  L. Koulias,  T. Kowalczyk,  
 C. M. Krauter,  A. Kunitsa,  Ka Un Lao,  A. Laurent,  K. V. Lawler,  
 Joonho Lee,  D. Lefrancois,  S. Lehtola,  D. S. Levine,  Yi-Pei Li,  
 You-Sheng Lin,  Fenglai Liu,  E. Livshits,  A. Luenser,  P. Manohar,  
 E. Mansoor,  S. F. Manzer,  Shan-Ping Mao,  Yuezhi Mao,  N. Mardirossian,  
 A. V. Marenich,  T. Markovich,  L. A. Martinez-Martinez,  S. A. Maurer,  
 N. J. Mayhall,  S. C. McKenzie,  J.-M. Mewes,  A. F. Morrison,  
 J. W. Mullinax,  K. Nanda,  T. S. Nguyen-Beck,  R. Olivares-Amaya,  
 J. A. Parkhill,  T. M. Perrine,  F. Plasser,  P. Pokhilko,  S. Prager,  
 A. Prociuk,  E. Ramos,  D. R. Rehn,  F. Rob,  M. Schneider,  N. Sergueev,  
 S. M. Sharada,  S. Sharma,  D. W. Small,  T. Stauch,  T. Stein,  
 Yu-Chuan Su,  A. J. W. Thom,  A. Tkatchenko,  T. Tsuchimochi,  N. M. Tubman,  
 L. Vogt,  M. L. Vidal,  O. Vydrov,  M. A. Watson,  J. Wenzel,  
 M. de Wergifosse,  T. A. Wesolowski,  A. White,  J. Witte,  A. Yamada,  
 Jun Yang,  K. Yao,  S. Yeganeh,  S. R. Yost,  Zhi-Qiang You,  A. Zech,  
 Igor Ying Zhang,  Xing Zhang,  Yan Zhao,  Ying Zhu,  B. R. Brooks,  
 G. K. L. Chan,  C. J. Cramer,  M. S. Gordon,  W. J. Hehre,  A. Klamt,  
 M. W. Schmidt,  C. D. Sherrill,  D. G. Truhlar,  A. Aspuru-Guzik,  R. Baer,  
 A. T. Bell,  N. A. Besley,  Jeng-Da Chai,  A. E. DePrince, III,  
 R. A. DiStasio Jr.,  A. Dreuw,  B. D. Dunietz,  T. R. Furlani,  
 Chao-Ping Hsu,  Yousung Jung,  Jing Kong,  D. S. Lambrecht,  WanZhen Liang,  
 C. Ochsenfeld,  V. A. Rassolov,  L. V. Slipchenko,  J. E. Subotnik,  
 T. Van Voorhis,  J. M. Herbert,  A. I. Krylov,  P. M. W. Gill,  M. Head-Gordon

 Contributors to earlier versions of Q-Chem not listed above: 
 R. D. Adamson,  B. Austin,  J. Baker,  G. J. O. Beran,  K. Brandhorst,  
 S. T. Brown,  E. F. C. Byrd,  A. K. Chakraborty,  C.-L. Cheng,  
 Siu Hung Chien,  D. M. Chipman,  D. L. Crittenden,  H. Dachsel,  
 R. J. Doerksen,  A. D. Dutoi,  L. Fusti-Molnar,  W. A. Goddard III,  
 A. Golubeva-Zadorozhnaya,  S. R. Gwaltney,  G. Hawkins,  A. Heyden,  
 S. Hirata,  G. Kedziora,  F. J. Keil,  C. Kelley,  Jihan Kim,  R. A. King,  
 R. Z. Khaliullin,  P. P. Korambath,  W. Kurlancheek,  A. M. Lee,  M. S. Lee,  
 S. V. Levchenko,  Ching Yeh Lin,  D. Liotard,  R. C. Lochan,  I. Lotan,  
 P. E. Maslen,  N. Nair,  D. P. O'Neill,  D. Neuhauser,  E. Neuscamman,  
 C. M. Oana,  R. Olson,  B. Peters,  R. Peverati,  P. A. Pieniazek,  
 Y. M. Rhee,  J. Ritchie,  M. A. Rohrdanz,  E. Rosta,  N. J. Russ,  
 H. F. Schaefer III,  N. E. Schultz,  N. Shenvi,  A. C. Simmonett,  A. Sodt,  
 D. Stuck,  K. S. Thanthiriwatte,  V. Vanovschi,  Tao Wang,  A. Warshel,  
 C. F. Williams,  Q. Wu,  X. Xu,  W. Zhang

 Please cite Q-Chem as follows:
 Y. Shao et al., Mol. Phys. 113, 184-215 (2015)
 DOI: 10.1080/00268976.2014.952696

 Q-Chem 5.1.1 for Intel X86 EM64T Linux

 Parts of Q-Chem use Armadillo 8.300.2 (Tropical Shenanigans).
 http://arma.sourceforge.net/

 Q-Chem begins on Sat Oct  3 20:16:42 2020  

Host: n0091.mhg0
0

     Scratch files written to /local/scratch/users/yhljason/SCl2_PTPSS-D3_aug-cc-pcVQZ.inp20201003135121//
The previous job contains 0 fragments, simply inherited here
Input Ideriv = 0
Curr. Ideriv = -1
Max.  Ideriv = 0
Analytic post-HF gradients are not available with non-HF exchange
Input Ideriv = 0
Curr. Ideriv = 0
Max.  Ideriv = 0

Checking the input file for inconsistencies... 	...done.

--------------------------------------------------------------
User input:
--------------------------------------------------------------
$molecule
read
$end

$rem

jobtype sp
method PTPSS-D3
xc_grid 000099000590
basis aug-cc-pcVQZ
max_scf_cycles 200
thresh 14
scf_convergence 8
mem_total 128000
cc_memory 96000
cc_backend xm
mem_static 1500
symmetry false
sym_ignore true
scf_guess read
unrestricted false
scf_algorithm gdm
n_frozen_core 0
$end

$multipole_field
YY -0.0001
$end


--------------------------------------------------------------
 Adding empirical dispersion correction 
 ----------------------------------------------------------------
 Doing -D3(0) with
 s6  =   0.75000
 s8  =   0.87900
 rs6 =   1.54100
 rs8 =   1.00000
 -D3 energy without 3body term =     -0.0003896210 hartrees
 ----------------------------------------------------------------
             Standard Nuclear Orientation (Angstroms)
    I     Atom           X                Y                Z
 ----------------------------------------------------------------
    1      S       0.0000000000     0.0000000000     0.8544000000
    2      Cl      0.0000000000     1.5740000000    -0.4021000000
    3      Cl      0.0000000000    -1.5740000000    -0.4021000000
 ----------------------------------------------------------------
 Nuclear Repulsion Energy =   191.5147432726 hartrees
 There are       25 alpha and       25 beta electrons
 Requested basis set is aug-cc-pCVQZ
 There are 102 shells and 402 basis functions

 Total QAlloc Memory Limit 128000 MB
 Mega-Array Size      1467 MB
 MEM_STATIC part      1500 MB

                       Distance Matrix (Angstroms)
             S (  1)   Cl(  2)
   Cl(  2)  2.014018
   Cl(  3)  2.014018  3.148000
 
 Applying Cartesian multipole field
    Component          Value
    ---------          -----
     (0,2,0)       -1.00000E-04
 Nucleus-field energy     =    -0.0300805732 hartrees
 A cutoff of  1.0D-14 yielded   4666 shell pairs
 There are     73226 function pairs (    124197 Cartesian)
 
 -------------------------------------------------------
 OpenMP Integral Computing Module                       
 Release: version 1.0, May 2013, Q-Chem Inc. Pittsburgh 
 -------------------------------------------------------
 Integral Job Info:
 Integral job number is                      11
 Integral operator is                         1
 short-range coefficients                     0
 long-range coefficients              100000000
 Omega coefficients                           0
 if combine SR and LR in K                    0
 Integral screening is                        0
 Integral computing path is                   2
 max size of driver memory is           3200000
 size of driver memory is               1704330
 size of scratch memory is             29435624
 max col of scratch BK array              50625
 max len of scratch array in speh3         2114
 max len of scratch index in speh4           50
 max int batch size is                      520
 min int batch size is                       52
 fixed nKL is                                22
 max L of basis functions is                  4
 order of int derivative is                   0
 number of shells is                        102
 number of basis is                         522
 number of cartesian basis is               522
 number of contracted shell pairs          4666
 number of primitive shell pairs          20235
 maxK2 (contraction) of shell pair          169
 max number of K2 of shell pair               1
 max number of CS2 of shell pair            435
 max number of PS2 of shell pair           3042
 mem total for path MDJ                  998488
 -------------------------------------------------------
 Smallest overlap matrix eigenvalue = 2.47E-05
 Guess MOs from SCF MO coefficient file

 -----------------------------------------------------------------------
  General SCF calculation program by
  Eric Jon Sundstrom, Paul Horn, Yuezhi Mao, Dmitri Zuev, Alec White,
  David Stuck, Shaama M.S., Shane Yost, Joonho Lee, David Small,
  Daniel Levine, Susi Lehtola, Hugh Burton, Evgeny Epifanovsky
 -----------------------------------------------------------------------
 Exchange:     0.5000 Hartree-Fock + 0.5000 PTPSS-D3
 Correlation:  0.6250 PTPSS-D3
 Using Euler-Maclaurin-Lebedev (99,590) quadrature formula
 Dispersion:   Grimme D3
 using 8 threads for integral computing
 -------------------------------------------------------
 OpenMP Integral computing Module                
 Release: version 2.0, May 2017, Q-Chem Inc. Pleasanton 
 -------------------------------------------------------
 -------------------------------------------------------
 OpenMP BLAS3 based DFT computing Module                
 Release: version 1.0, May 2013, Q-Chem Inc. Pittsburgh 
 -------------------------------------------------------
 A restricted SCF calculation will be
 performed using GDM
 SCF converges when RMS gradient is below 1.0e-08
 ---------------------------------------
  Cycle       Energy        RMS Gradient
 ---------------------------------------
    1   -1317.9881781784      1.63e-03   Normal BFGS step
    2   -1317.9881925779      1.24e-03   Normal BFGS step
    3   -1317.9882010036      2.48e-04   Normal BFGS step
    4   -1317.9882013012      1.24e-04   Normal BFGS step
    5   -1317.9882014209      2.17e-05   Normal BFGS step
    6   -1317.9882014254      6.70e-06   Normal BFGS step
    7   -1317.9882014262      1.61e-06   Normal BFGS step
    8   -1317.9882014262      5.35e-07   Normal BFGS step
    9   -1317.9882014262      6.90e-08   Normal BFGS step
   10   -1317.9882014262      1.42e-08   Normal BFGS step
   11   -1317.9882014262      2.86e-09  Convergence criterion met
 ---------------------------------------
 SCF time:   CPU 13404.30s  wall 1721.00s 
 SCF   energy in the final basis set =    -1317.9882014262
 Total energy in the final basis set =    -1317.9882014262
 
 Components of the MP2 correlation energy:
        aaaa  correlation energy =         0.0000000000 au
        abab  correlation energy =        -0.5540242429 au
        bbbb  correlation energy =         0.0000000000 au
        non-Brillouin singles    =        -0.0000000000 au

 Total  MP2   correlation energy =                    -0.55402424 au
        MP2         total energy =                 -1318.54222567 au
 
 --------------------------------------------------------------
 
                    Orbital Energies (a.u.)
 --------------------------------------------------------------
 
 Alpha MOs
 -- Occupied --
*******-102.916 -90.227  -9.941  -9.941  -8.446  -7.563  -7.563
 -7.557  -7.557  -7.556  -7.556  -6.277  -6.275  -6.267  -1.034
 -0.961  -0.768  -0.531  -0.493  -0.473  -0.412  -0.401  -0.394
 -0.300
 -- Virtual --
 -0.038  -0.024   0.039   0.052   0.053   0.063   0.082   0.089
  0.096   0.096   0.096   0.126   0.162   0.167   0.174   0.176
  0.193   0.210   0.219   0.238   0.242   0.249   0.283   0.286
  0.286   0.297   0.305   0.311   0.344   0.349   0.366   0.418
  0.420   0.424   0.436   0.439   0.476   0.483   0.489   0.490
  0.492   0.512   0.515   0.540   0.546   0.552   0.553   0.562
  0.584   0.598   0.614   0.652   0.653   0.663   0.682   0.711
  0.722   0.726   0.756   0.773   0.776   0.832   0.848   0.875
  0.875   0.915   0.922   0.951   0.965   0.985   1.027   1.036
  1.056   1.064   1.068   1.078   1.131   1.242   1.251   1.271
  1.297   1.314   1.335   1.351   1.371   1.419   1.425   1.433
  1.449   1.454   1.496   1.498   1.505   1.513   1.528   1.537
  1.544   1.552   1.576   1.594   1.596   1.611   1.617   1.625
[...]
 17.864  18.358  18.363  18.393  18.409  18.430  18.458  18.462
 18.560  18.623  21.204  21.204  21.206  21.211  21.223  21.228
 21.229  21.232  21.269  21.275  21.280  21.293  21.296  21.297
 28.292  31.468  31.507  31.534  31.713  31.933  33.657  33.775
 37.273  37.274  37.281  37.301  37.371  37.385  37.391  37.490
 37.654  37.679  45.713  46.062  46.207  51.513  51.532  51.537
 51.604  52.054  52.078  55.286  55.286  55.291  55.292  55.296
 55.298  55.300  55.302  55.303  64.901  64.901  64.902  64.902
 64.902  64.902  64.903  64.904  64.904  64.904  64.907  64.907
 64.907  64.908  64.913  64.913  64.913  64.913  65.419  65.425
 65.434  65.436  65.450  65.496  65.497  75.269  75.269  75.270
 75.273  75.279  75.281  75.281  75.283  75.302  75.305  75.308
 75.311  75.313  75.314  82.292  93.242  93.271  93.289  93.411
 93.595  97.625  97.767 110.117 110.118 110.123 110.136 110.190
110.199 110.203 110.273 110.369 110.391 145.316 145.551 145.649
165.752 165.765 165.768 165.807 166.083 166.096 387.943 455.422
456.015
 --------------------------------------------------------------
 
          Ground-State Mulliken Net Atomic Charges

     Atom                 Charge (a.u.)
  ----------------------------------------
      1 S                     0.161885
      2 Cl                   -0.080943
      3 Cl                   -0.080943
  ----------------------------------------
  Sum of atomic charges =    -0.000000

 -----------------------------------------------------------------
                    Cartesian Multipole Moments
 -----------------------------------------------------------------
    Charge (ESU x 10^10)
                -0.0000
    Dipole Moment (Debye)
         X      -0.0000      Y       0.0000      Z       0.4073
       Tot       0.4073
    Quadrupole Moments (Debye-Ang)
        XX     -39.1363     XY       0.0000     YY     -36.5744
        XZ       0.0000     YZ      -0.0000     ZZ     -36.2650
    Octopole Moments (Debye-Ang^2)
       XXX       0.0000    XXY      -0.0000    XYY      -0.0000
       YYY       0.0000    XXZ      -1.5590    XYZ       0.0000
       YYZ      -3.6062    XZZ      -0.0000    YZZ      -0.0000
       ZZZ      -0.9797
    Hexadecapole Moments (Debye-Ang^3)
      XXXX     -47.2327   XXXY       0.0000   XXYY     -79.0262
      XYYY       0.0000   YYYY    -395.4522   XXXZ       0.0000
      XXYZ      -0.0000   XYYZ       0.0000   YYYZ      -0.0000
      XXZZ     -30.1353   XYZZ       0.0000   YYZZ     -81.6015
      XZZZ       0.0000   YZZZ       0.0000   ZZZZ    -117.7019
 -----------------------------------------------------------------
Archival summary:
1\1\n0091.mhg0\SP\ProcedureUnspecified\BasisUnspecified\l21\yhljason\SatOct322:56:372020SatOct322:56:372020\0\\#,ProcedureUnspecified,BasisUnspecified,\\0,1\S\Cl,1,2.01402\Cl,1,2.01402,2,102.8\\\@

 Total job time:  5030.97s(wall), 38826.56s(cpu) 
 Sat Oct  3 22:56:37 2020

        *************************************************************
        *                                                           *
        *  Thank you very much for using Q-Chem.  Have a nice day.  *
        *                                                           *
        *************************************************************


 
User input: 8 of 8 
 
Q-Chem Developer Version!
                  Welcome to Q-Chem
     A Quantum Leap Into The Future Of Chemistry


 Q-Chem 5.1, Q-Chem, Inc., Pleasanton, CA (2018)

 Yihan Shao,  Zhengting Gan,  E. Epifanovsky,  A. T. B. Gilbert,  M. Wormit,  
 J. Kussmann,  A. W. Lange,  A. Behn,  Jia Deng,  Xintian Feng,  D. Ghosh,  
 M. Goldey,  P. R. Horn,  L. D. Jacobson,  I. Kaliman,  T. Kus,  A. Landau,  
 Jie Liu,  E. I. Proynov,  R. M. Richard,  R. P. Steele,  E. J. Sundstrom,  
 H. L. Woodcock III,  P. M. Zimmerman,  D. Zuev,  B. Albrecht,  E. Alguire,  
 S. A. Baeppler,  D. Barton,  Z. Benda,  Y. A. Bernard,  E. J. Berquist,  
 K. B. Bravaya,  H. Burton,  D. Casanova,  Chun-Min Chang,  Yunqing Chen,  
 A. Chien,  K. D. Closser,  M. P. Coons,  S. Coriani,  S. Dasgupta,  
 A. L. Dempwolff,  M. Diedenhofen,  Hainam Do,  R. G. Edgar,  Po-Tung Fang,  
 S. Faraji,  S. Fatehi,  Qingguo Feng,  K. D. Fenk,  J. Fosso-Tande,  
 Qinghui Ge,  A. Ghysels,  G. Gidofalvi,  J. Gomes,  J. Gonthier,  A. Gunina,  
 D. Hait,  M. W. D. Hanson-Heine,  P. H. P. Harbach,  A. W. Hauser,  
 J. E. Herr,  E. G. Hohenstein,  Z. C. Holden,  Kerwin Hui,  B. C. Huynh,  
 T.-C. Jagau,  Hyunjun Ji,  B. Kaduk,  K. Khistyaev,  Jaehoon Kim,  
 P. Klunzinger,  K. Koh,  D. Kosenkov,  L. Koulias,  T. Kowalczyk,  
 C. M. Krauter,  A. Kunitsa,  Ka Un Lao,  A. Laurent,  K. V. Lawler,  
 Joonho Lee,  D. Lefrancois,  S. Lehtola,  D. S. Levine,  Yi-Pei Li,  
 You-Sheng Lin,  Fenglai Liu,  E. Livshits,  A. Luenser,  P. Manohar,  
 E. Mansoor,  S. F. Manzer,  Shan-Ping Mao,  Yuezhi Mao,  N. Mardirossian,  
 A. V. Marenich,  T. Markovich,  L. A. Martinez-Martinez,  S. A. Maurer,  
 N. J. Mayhall,  S. C. McKenzie,  J.-M. Mewes,  A. F. Morrison,  
 J. W. Mullinax,  K. Nanda,  T. S. Nguyen-Beck,  R. Olivares-Amaya,  
 J. A. Parkhill,  T. M. Perrine,  F. Plasser,  P. Pokhilko,  S. Prager,  
 A. Prociuk,  E. Ramos,  D. R. Rehn,  F. Rob,  M. Schneider,  N. Sergueev,  
 S. M. Sharada,  S. Sharma,  D. W. Small,  T. Stauch,  T. Stein,  
 Yu-Chuan Su,  A. J. W. Thom,  A. Tkatchenko,  T. Tsuchimochi,  N. M. Tubman,  
 L. Vogt,  M. L. Vidal,  O. Vydrov,  M. A. Watson,  J. Wenzel,  
 M. de Wergifosse,  T. A. Wesolowski,  A. White,  J. Witte,  A. Yamada,  
 Jun Yang,  K. Yao,  S. Yeganeh,  S. R. Yost,  Zhi-Qiang You,  A. Zech,  
 Igor Ying Zhang,  Xing Zhang,  Yan Zhao,  Ying Zhu,  B. R. Brooks,  
 G. K. L. Chan,  C. J. Cramer,  M. S. Gordon,  W. J. Hehre,  A. Klamt,  
 M. W. Schmidt,  C. D. Sherrill,  D. G. Truhlar,  A. Aspuru-Guzik,  R. Baer,  
 A. T. Bell,  N. A. Besley,  Jeng-Da Chai,  A. E. DePrince, III,  
 R. A. DiStasio Jr.,  A. Dreuw,  B. D. Dunietz,  T. R. Furlani,  
 Chao-Ping Hsu,  Yousung Jung,  Jing Kong,  D. S. Lambrecht,  WanZhen Liang,  
 C. Ochsenfeld,  V. A. Rassolov,  L. V. Slipchenko,  J. E. Subotnik,  
 T. Van Voorhis,  J. M. Herbert,  A. I. Krylov,  P. M. W. Gill,  M. Head-Gordon

 Contributors to earlier versions of Q-Chem not listed above: 
 R. D. Adamson,  B. Austin,  J. Baker,  G. J. O. Beran,  K. Brandhorst,  
 S. T. Brown,  E. F. C. Byrd,  A. K. Chakraborty,  C.-L. Cheng,  
 Siu Hung Chien,  D. M. Chipman,  D. L. Crittenden,  H. Dachsel,  
 R. J. Doerksen,  A. D. Dutoi,  L. Fusti-Molnar,  W. A. Goddard III,  
 A. Golubeva-Zadorozhnaya,  S. R. Gwaltney,  G. Hawkins,  A. Heyden,  
 S. Hirata,  G. Kedziora,  F. J. Keil,  C. Kelley,  Jihan Kim,  R. A. King,  
 R. Z. Khaliullin,  P. P. Korambath,  W. Kurlancheek,  A. M. Lee,  M. S. Lee,  
 S. V. Levchenko,  Ching Yeh Lin,  D. Liotard,  R. C. Lochan,  I. Lotan,  
 P. E. Maslen,  N. Nair,  D. P. O'Neill,  D. Neuhauser,  E. Neuscamman,  
 C. M. Oana,  R. Olson,  B. Peters,  R. Peverati,  P. A. Pieniazek,  
 Y. M. Rhee,  J. Ritchie,  M. A. Rohrdanz,  E. Rosta,  N. J. Russ,  
 H. F. Schaefer III,  N. E. Schultz,  N. Shenvi,  A. C. Simmonett,  A. Sodt,  
 D. Stuck,  K. S. Thanthiriwatte,  V. Vanovschi,  Tao Wang,  A. Warshel,  
 C. F. Williams,  Q. Wu,  X. Xu,  W. Zhang

 Please cite Q-Chem as follows:
 Y. Shao et al., Mol. Phys. 113, 184-215 (2015)
 DOI: 10.1080/00268976.2014.952696

 Q-Chem 5.1.1 for Intel X86 EM64T Linux

 Parts of Q-Chem use Armadillo 8.300.2 (Tropical Shenanigans).
 http://arma.sourceforge.net/

 Q-Chem begins on Sat Oct  3 22:56:37 2020  

Host: n0091.mhg0
0

     Scratch files written to /local/scratch/users/yhljason/SCl2_PTPSS-D3_aug-cc-pcVQZ.inp20201003135121//
The previous job contains 0 fragments, simply inherited here
Input Ideriv = 0
Curr. Ideriv = -1
Max.  Ideriv = 0
Analytic post-HF gradients are not available with non-HF exchange
Input Ideriv = 0
Curr. Ideriv = 0
Max.  Ideriv = 0

Checking the input file for inconsistencies... 	...done.

--------------------------------------------------------------
User input:
--------------------------------------------------------------
$molecule
read
$end

$rem

jobtype sp
method PTPSS-D3
xc_grid 000099000590
basis aug-cc-pcVQZ
max_scf_cycles 200
thresh 14
scf_convergence 8
mem_total 128000
cc_memory 96000
cc_backend xm
mem_static 1500
symmetry false
sym_ignore true
scf_guess read
unrestricted false
scf_algorithm gdm
n_frozen_core 0
$end

$multipole_field
ZZ -0.0001
$end

--------------------------------------------------------------
 Adding empirical dispersion correction 
 ----------------------------------------------------------------
 Doing -D3(0) with
 s6  =   0.75000
 s8  =   0.87900
 rs6 =   1.54100
 rs8 =   1.00000
 -D3 energy without 3body term =     -0.0003896210 hartrees
 ----------------------------------------------------------------
             Standard Nuclear Orientation (Angstroms)
    I     Atom           X                Y                Z
 ----------------------------------------------------------------
    1      S       0.0000000000     0.0000000000     0.8544000000
    2      Cl      0.0000000000     1.5740000000    -0.4021000000
    3      Cl      0.0000000000    -1.5740000000    -0.4021000000
 ----------------------------------------------------------------
 Nuclear Repulsion Energy =   191.5147432726 hartrees
 There are       25 alpha and       25 beta electrons
 Requested basis set is aug-cc-pCVQZ
 There are 102 shells and 402 basis functions

 Total QAlloc Memory Limit 128000 MB
 Mega-Array Size      1467 MB
 MEM_STATIC part      1500 MB

                       Distance Matrix (Angstroms)
             S (  1)   Cl(  2)
   Cl(  2)  2.014018
   Cl(  3)  2.014018  3.148000
 
 Applying Cartesian multipole field
    Component          Value
    ---------          -----
     (0,0,2)       -1.00000E-04
 Nucleus-field energy     =    -0.0061341108 hartrees
 A cutoff of  1.0D-14 yielded   4666 shell pairs
 There are     73226 function pairs (    124197 Cartesian)
 
 -------------------------------------------------------
 OpenMP Integral Computing Module                       
 Release: version 1.0, May 2013, Q-Chem Inc. Pittsburgh 
 -------------------------------------------------------
 Integral Job Info:
 Integral job number is                      11
 Integral operator is                         1
 short-range coefficients                     0
 long-range coefficients              100000000
 Omega coefficients                           0
 if combine SR and LR in K                    0
 Integral screening is                        0
 Integral computing path is                   2
 max size of driver memory is           3200000
 size of driver memory is               1704330
 size of scratch memory is             29435624
 max col of scratch BK array              50625
 max len of scratch array in speh3         2114
 max len of scratch index in speh4           50
 max int batch size is                      520
 min int batch size is                       52
 fixed nKL is                                22
 max L of basis functions is                  4
 order of int derivative is                   0
 number of shells is                        102
 number of basis is                         522
 number of cartesian basis is               522
 number of contracted shell pairs          4666
 number of primitive shell pairs          20235
 maxK2 (contraction) of shell pair          169
 max number of K2 of shell pair               1
 max number of CS2 of shell pair            435
 max number of PS2 of shell pair           3042
 mem total for path MDJ                  998488
 -------------------------------------------------------
 Smallest overlap matrix eigenvalue = 2.47E-05
 Guess MOs from SCF MO coefficient file

 -----------------------------------------------------------------------
  General SCF calculation program by
  Eric Jon Sundstrom, Paul Horn, Yuezhi Mao, Dmitri Zuev, Alec White,
  David Stuck, Shaama M.S., Shane Yost, Joonho Lee, David Small,
  Daniel Levine, Susi Lehtola, Hugh Burton, Evgeny Epifanovsky
 -----------------------------------------------------------------------
 Exchange:     0.5000 Hartree-Fock + 0.5000 PTPSS-D3
 Correlation:  0.6250 PTPSS-D3
 Using Euler-Maclaurin-Lebedev (99,590) quadrature formula
 Dispersion:   Grimme D3
 using 8 threads for integral computing
 -------------------------------------------------------
 OpenMP Integral computing Module                
 Release: version 2.0, May 2017, Q-Chem Inc. Pleasanton 
 -------------------------------------------------------
 -------------------------------------------------------
 OpenMP BLAS3 based DFT computing Module                
 Release: version 1.0, May 2013, Q-Chem Inc. Pittsburgh 
 -------------------------------------------------------
 A restricted SCF calculation will be
 performed using GDM
 SCF converges when RMS gradient is below 1.0e-08
 ---------------------------------------
  Cycle       Energy        RMS Gradient
 ---------------------------------------
    1   -1317.9882177760      7.10e-04   Normal BFGS step
    2   -1317.9882245885      3.09e-04   Normal BFGS step
    3   -1317.9882256305      6.13e-05   Normal BFGS step
    4   -1317.9882256914      2.69e-05   Normal BFGS step
    5   -1317.9882256983      6.06e-06   Normal BFGS step
    6   -1317.9882256988      3.12e-06   Normal BFGS step
    7   -1317.9882256989      1.86e-06   Normal BFGS step
    8   -1317.9882256989      4.08e-07   Normal BFGS step
    9   -1317.9882256989      7.89e-08   Normal BFGS step
   10   -1317.9882256989      1.78e-08   Normal BFGS step
   11   -1317.9882256989      3.33e-09  Convergence criterion met
 ---------------------------------------
 SCF time:   CPU 10690.64s  wall 1345.00s 
 SCF   energy in the final basis set =    -1317.9882256989
 Total energy in the final basis set =    -1317.9882256989
 
 Components of the MP2 correlation energy:
        aaaa  correlation energy =         0.0000000000 au
        abab  correlation energy =        -0.5540176192 au
        bbbb  correlation energy =         0.0000000000 au
        non-Brillouin singles    =        -0.0000000000 au

 Total  MP2   correlation energy =                    -0.55401762 au
        MP2         total energy =                 -1318.54224332 au
 
 --------------------------------------------------------------
 
                    Orbital Energies (a.u.)
 --------------------------------------------------------------
 
 Alpha MOs
 -- Occupied --
*******-102.917 -90.227  -9.942  -9.942  -8.447  -7.564  -7.564
 -7.558  -7.558  -7.557  -7.557  -6.278  -6.275  -6.268  -1.034
 -0.962  -0.769  -0.531  -0.494  -0.474  -0.413  -0.402  -0.395
 -0.301
 -- Virtual --
 -0.038  -0.024   0.038   0.049   0.055   0.064   0.081   0.090
  0.093   0.094   0.097   0.125   0.161   0.167   0.173   0.176
  0.194   0.210   0.218   0.238   0.242   0.247   0.281   0.286
  0.286   0.297   0.304   0.310   0.342   0.349   0.366   0.417
  0.420   0.423   0.434   0.439   0.476   0.482   0.488   0.489
  0.491   0.512   0.514   0.540   0.546   0.551   0.552   0.561
  0.584   0.597   0.614   0.652   0.653   0.662   0.682   0.711
  0.722   0.725   0.755   0.773   0.776   0.832   0.848   0.875
  0.875   0.914   0.921   0.950   0.965   0.984   1.026   1.035
  1.055   1.063   1.067   1.077   1.130   1.242   1.250   1.271
  1.297   1.314   1.334   1.351   1.371   1.418   1.424   1.432
  1.449   1.453   1.496   1.498   1.504   1.513   1.528   1.537
  1.544   1.552   1.575   1.593   1.596   1.610   1.616   1.625
  1.645   1.651   1.682   1.696   1.760   1.765   1.773   1.792
  1.818   1.881   1.899   1.901   1.917   1.933   1.938   1.950
  1.952   1.959   1.971   2.007   2.033   2.051   2.052   2.080
  2.096   2.107   2.137   2.197   2.197   2.212   2.255   2.292
  2.308   2.318   2.352   2.393   2.396   2.433   2.507   2.531
  2.665   2.676   2.694   2.711   2.756   2.816   2.993   3.018
  3.342   3.401   3.477   3.531   3.536   3.566   3.639   3.679
  3.692   3.726   3.726   3.729   3.754   3.761   3.789   3.809
  3.872   3.894   3.927   3.951   3.952   3.953   3.957   3.993
  4.089   4.091   4.107   4.126   4.298   4.439   4.454   4.467
  4.476   4.494   4.496   4.499   4.508   4.524   4.527   4.533
  4.541   4.548   4.570   4.576   4.595   4.603   4.627   4.632
  4.639   4.649   4.672   4.675   4.678   4.702   4.787   4.827
  4.889   4.920   4.950   4.962   5.099   5.159   5.378   5.408
  5.744   5.820   5.840   5.889   6.046   6.062   6.587   6.650
  8.518   9.883   9.905   9.962  10.031  10.034  10.459  10.653
 11.758  11.760  11.772  11.801  11.894  11.915  11.926  12.077
 12.439  12.446  15.962  16.368  16.543  17.770  17.775  17.779
 17.865  18.359  18.364  18.394  18.410  18.431  18.459  18.464
 18.561  18.624  21.205  21.205  21.207  21.212  21.224  21.229
 21.230  21.233  21.270  21.276  21.281  21.294  21.297  21.298
 28.293  31.469  31.508  31.535  31.714  31.935  33.658  33.776
 37.274  37.275  37.282  37.302  37.373  37.386  37.392  37.491
 37.655  37.680  45.714  46.063  46.208  51.514  51.533  51.538
 51.605  52.055  52.079  55.287  55.287  55.292  55.293  55.298
 55.299  55.301  55.303  55.304  64.902  64.903  64.903  64.903
 64.903  64.903  64.905  64.905  64.905  64.905  64.908  64.908
 64.908  64.909  64.914  64.914  64.914  64.914  65.420  65.426
 65.436  65.438  65.451  65.497  65.498  75.270  75.270  75.271
 75.274  75.280  75.282  75.282  75.284  75.303  75.306  75.309
 75.312  75.314  75.315  82.293  93.244  93.272  93.290  93.412
 93.596  97.626  97.768 110.119 110.119 110.124 110.137 110.191
110.200 110.204 110.274 110.370 110.392 145.317 145.552 145.650
165.753 165.766 165.769 165.808 166.084 166.097 387.944 455.423
456.017
 --------------------------------------------------------------
 
          Ground-State Mulliken Net Atomic Charges

     Atom                 Charge (a.u.)
  ----------------------------------------
      1 S                     0.163120
      2 Cl                   -0.081560
      3 Cl                   -0.081560
  ----------------------------------------
  Sum of atomic charges =    -0.000000

 -----------------------------------------------------------------
                    Cartesian Multipole Moments
 -----------------------------------------------------------------
    Charge (ESU x 10^10)
                -0.0000
    Dipole Moment (Debye)
         X      -0.0000      Y       0.0000      Z       0.4168
       Tot       0.4168
    Quadrupole Moments (Debye-Ang)
        XX     -39.1284     XY       0.0000     YY     -36.6045
        XZ       0.0000     YZ      -0.0000     ZZ     -36.1586
    Octopole Moments (Debye-Ang^2)
       XXX      -0.0000    XXY       0.0000    XYY      -0.0000
       YYY       0.0000    XXZ      -1.5466    XYZ       0.0000
       YYZ      -3.6340    XZZ      -0.0000    YZZ       0.0000
       ZZZ      -0.8976
    Hexadecapole Moments (Debye-Ang^3)
      XXXX     -47.1871   XXXY       0.0000   XXYY     -79.0286
      XYYY       0.0000   YYYY    -395.6444   XXXZ       0.0000
      XXYZ       0.0000   XYYZ       0.0000   YYYZ      -0.0000
      XXZZ     -30.0339   XYZZ       0.0000   YYZZ     -81.4672
      XZZZ       0.0000   YZZZ      -0.0000   ZZZZ    -117.0912
 -----------------------------------------------------------------
Archival summary:
1\1\n0091.mhg0\SP\ProcedureUnspecified\BasisUnspecified\l21\yhljason\SunOct400:12:142020SunOct400:12:142020\0\\#,ProcedureUnspecified,BasisUnspecified,\\0,1\S\Cl,1,2.01402\Cl,1,2.01402,2,102.8\\\@

 Total job time:  4537.34s(wall), 35641.70s(cpu) 
 Sun Oct  4 00:12:14 2020

        *************************************************************
        *                                                           *
        *  Thank you very much for using Q-Chem.  Have a nice day.  *
        *                                                           *
        *************************************************************


