Q-Chem Developer Version!
                  Welcome to Q-Chem
     A Quantum Leap Into The Future Of Chemistry


 Q-Chem 5.1, Q-Chem, Inc., Pleasanton, CA (2018)

 Yihan Shao,  Zhengting Gan,  E. Epifanovsky,  A. T. B. Gilbert,  M. Wormit,  
 J. Kussmann,  A. W. Lange,  A. Behn,  Jia Deng,  Xintian Feng,  D. Ghosh,  
 M. Goldey,  P. R. Horn,  L. D. Jacobson,  I. Kaliman,  T. Kus,  A. Landau,  
 Jie Liu,  E. I. Proynov,  R. M. Richard,  R. P. Steele,  E. J. Sundstrom,  
 H. L. Woodcock III,  P. M. Zimmerman,  D. Zuev,  B. Albrecht,  E. Alguire,  
 S. A. Baeppler,  D. Barton,  Z. Benda,  Y. A. Bernard,  E. J. Berquist,  
 K. B. Bravaya,  H. Burton,  D. Casanova,  Chun-Min Chang,  Yunqing Chen,  
 A. Chien,  K. D. Closser,  M. P. Coons,  S. Coriani,  S. Dasgupta,  
 A. L. Dempwolff,  M. Diedenhofen,  Hainam Do,  R. G. Edgar,  Po-Tung Fang,  
 S. Faraji,  S. Fatehi,  Qingguo Feng,  K. D. Fenk,  J. Fosso-Tande,  
 Qinghui Ge,  A. Ghysels,  G. Gidofalvi,  J. Gomes,  J. Gonthier,  A. Gunina,  
 D. Hait,  M. W. D. Hanson-Heine,  P. H. P. Harbach,  A. W. Hauser,  
 J. E. Herr,  E. G. Hohenstein,  Z. C. Holden,  Kerwin Hui,  B. C. Huynh,  
 T.-C. Jagau,  Hyunjun Ji,  B. Kaduk,  K. Khistyaev,  Jaehoon Kim,  
 P. Klunzinger,  K. Koh,  D. Kosenkov,  L. Koulias,  T. Kowalczyk,  
 C. M. Krauter,  A. Kunitsa,  Ka Un Lao,  A. Laurent,  K. V. Lawler,  
 Joonho Lee,  D. Lefrancois,  S. Lehtola,  D. S. Levine,  Yi-Pei Li,  
 You-Sheng Lin,  Fenglai Liu,  E. Livshits,  A. Luenser,  P. Manohar,  
 E. Mansoor,  S. F. Manzer,  Shan-Ping Mao,  Yuezhi Mao,  N. Mardirossian,  
 A. V. Marenich,  T. Markovich,  L. A. Martinez-Martinez,  S. A. Maurer,  
 N. J. Mayhall,  S. C. McKenzie,  J.-M. Mewes,  A. F. Morrison,  
 J. W. Mullinax,  K. Nanda,  T. S. Nguyen-Beck,  R. Olivares-Amaya,  
 J. A. Parkhill,  T. M. Perrine,  F. Plasser,  P. Pokhilko,  S. Prager,  
 A. Prociuk,  E. Ramos,  D. R. Rehn,  F. Rob,  M. Schneider,  N. Sergueev,  
 S. M. Sharada,  S. Sharma,  D. W. Small,  T. Stauch,  T. Stein,  
 Yu-Chuan Su,  A. J. W. Thom,  A. Tkatchenko,  T. Tsuchimochi,  N. M. Tubman,  
 L. Vogt,  M. L. Vidal,  O. Vydrov,  M. A. Watson,  J. Wenzel,  
 M. de Wergifosse,  T. A. Wesolowski,  A. White,  J. Witte,  A. Yamada,  
 Jun Yang,  K. Yao,  S. Yeganeh,  S. R. Yost,  Zhi-Qiang You,  A. Zech,  
 Igor Ying Zhang,  Xing Zhang,  Yan Zhao,  Ying Zhu,  B. R. Brooks,  
 G. K. L. Chan,  C. J. Cramer,  M. S. Gordon,  W. J. Hehre,  A. Klamt,  
 M. W. Schmidt,  C. D. Sherrill,  D. G. Truhlar,  A. Aspuru-Guzik,  R. Baer,  
 A. T. Bell,  N. A. Besley,  Jeng-Da Chai,  A. E. DePrince, III,  
 R. A. DiStasio Jr.,  A. Dreuw,  B. D. Dunietz,  T. R. Furlani,  
 Chao-Ping Hsu,  Yousung Jung,  Jing Kong,  D. S. Lambrecht,  WanZhen Liang,  
 C. Ochsenfeld,  V. A. Rassolov,  L. V. Slipchenko,  J. E. Subotnik,  
 T. Van Voorhis,  J. M. Herbert,  A. I. Krylov,  P. M. W. Gill,  M. Head-Gordon

 Contributors to earlier versions of Q-Chem not listed above: 
 R. D. Adamson,  B. Austin,  J. Baker,  G. J. O. Beran,  K. Brandhorst,  
 S. T. Brown,  E. F. C. Byrd,  A. K. Chakraborty,  C.-L. Cheng,  
 Siu Hung Chien,  D. M. Chipman,  D. L. Crittenden,  H. Dachsel,  
 R. J. Doerksen,  A. D. Dutoi,  L. Fusti-Molnar,  W. A. Goddard III,  
 A. Golubeva-Zadorozhnaya,  S. R. Gwaltney,  G. Hawkins,  A. Heyden,  
 S. Hirata,  G. Kedziora,  F. J. Keil,  C. Kelley,  Jihan Kim,  R. A. King,  
 R. Z. Khaliullin,  P. P. Korambath,  W. Kurlancheek,  A. M. Lee,  M. S. Lee,  
 S. V. Levchenko,  Ching Yeh Lin,  D. Liotard,  R. C. Lochan,  I. Lotan,  
 P. E. Maslen,  N. Nair,  D. P. O'Neill,  D. Neuhauser,  E. Neuscamman,  
 C. M. Oana,  R. Olson,  B. Peters,  R. Peverati,  P. A. Pieniazek,  
 Y. M. Rhee,  J. Ritchie,  M. A. Rohrdanz,  E. Rosta,  N. J. Russ,  
 H. F. Schaefer III,  N. E. Schultz,  N. Shenvi,  A. C. Simmonett,  A. Sodt,  
 D. Stuck,  K. S. Thanthiriwatte,  V. Vanovschi,  Tao Wang,  A. Warshel,  
 C. F. Williams,  Q. Wu,  X. Xu,  W. Zhang

 Please cite Q-Chem as follows:
 Y. Shao et al., Mol. Phys. 113, 184-215 (2015)
 DOI: 10.1080/00268976.2014.952696

 Q-Chem 5.1.1 for Intel X86 EM64T Linux

 Parts of Q-Chem use Armadillo 8.300.2 (Tropical Shenanigans).
 http://arma.sourceforge.net/

 Q-Chem begins on Sat Oct  3 14:13:27 2020  

Host: n0075.mhg0
0

     Scratch files written to /local/scratch/users/yhljason/SiH3_PTPSS-D3_aug-cc-pcVTZ.inp20201003135124//
Input Ideriv = 0
Curr. Ideriv = -1
Max.  Ideriv = 0
Input Ideriv = 1
Curr. Ideriv = 0
Max.  Ideriv = 0

Checking the input file for inconsistencies... 	...done.

--------------------------------------------------------------
User input:
--------------------------------------------------------------
$molecule
0 2
Si1   0.0000   0.0000   0.0819
H2 0.0000   1.3928   -0.3820
H3 1.2062   -0.6964  -0.3820
H4 -1.2062  -0.6964  -0.3820
$end

$rem
jobtype sp
method PTPSS-D3
xc_grid 000099000590
basis aug-cc-pcVTZ
max_scf_cycles 200
thresh 14
scf_convergence 8
scf_algorithm gdm
symmetry false
sym_ignore true
unrestricted false
gen_scfman true
internal_stability_iter 15
internal_stability_davidson_iter 200
mem_total 128000
cc_memory 96000
cc_backend xm
mem_static 1500
n_frozen_core 0
$end



--------------------------------------------------------------
 Adding empirical dispersion correction 
 ----------------------------------------------------------------
 Doing -D3(0) with
 s6  =   0.75000
 s8  =   0.87900
 rs6 =   1.54100
 rs8 =   1.00000
 -D3 energy without 3body term =     -0.0002432811 hartrees
 ----------------------------------------------------------------
             Standard Nuclear Orientation (Angstroms)
    I     Atom           X                Y                Z
 ----------------------------------------------------------------
    1      Si      0.0000000000     0.0000000000     0.0819000000
    2      H       0.0000000000     1.3928000000    -0.3820000000
    3      H       1.2062000000    -0.6964000000    -0.3820000000
    4      H      -1.2062000000    -0.6964000000    -0.3820000000
 ----------------------------------------------------------------
 Nuclear Repulsion Energy =    15.7975270531 hartrees
 There are        9 alpha and        8 beta electrons
 Requested basis set is aug-cc-pCVTZ
 There are 50 shells and 144 basis functions

 Total QAlloc Memory Limit 128000 MB
 Mega-Array Size      1467 MB
 MEM_STATIC part      1500 MB

                       Distance Matrix (Angstroms)
             Si(  1)   H (  2)   H (  3)
   H (  2)  1.468024
   H (  3)  1.468024  2.412400
   H (  4)  1.468024  2.412400  2.412400
 
 A cutoff of  1.0D-14 yielded   1275 shell pairs
 There are     10661 function pairs (     13878 Cartesian)
 
 -------------------------------------------------------
 OpenMP Integral Computing Module                       
 Release: version 1.0, May 2013, Q-Chem Inc. Pittsburgh 
 -------------------------------------------------------
 Integral Job Info:
 Integral job number is                      11
 Integral operator is                         1
 short-range coefficients                     0
 long-range coefficients              100000000
 Omega coefficients                           0
 if combine SR and LR in K                    0
 Integral screening is                        0
 Integral computing path is                   2
 max size of driver memory is            800000
 size of driver memory is                776718
 size of scratch memory is             29531563
 max col of scratch BK array              10000
 max len of scratch array in speh3          662
 max len of scratch index in speh4           32
 max int batch size is                      520
 min int batch size is                       52
 fixed nKL is                                31
 max L of basis functions is                  3
 order of int derivative is                   0
 number of shells is                         50
 number of basis is                         164
 number of cartesian basis is               164
 number of contracted shell pairs          1275
 number of primitive shell pairs           5508
 maxK2 (contraction) of shell pair          169
 max number of K2 of shell pair               1
 max number of CS2 of shell pair            196
 max number of PS2 of shell pair           1014
 mem total for path MDJ                  547738
 -------------------------------------------------------
 Smallest overlap matrix eigenvalue = 1.20E-04

 Scale SEOQF with 1.000000e-01/1.000000e-01/1.000000e-01

 Standard Electronic Orientation quadrupole field applied
 Nucleus-field energy     =     0.0000000003 hartrees
 Guess from superposition of atomic densities
 Warning:  Energy on first SCF cycle will be non-variational
 SAD guess density has 17.000000 electrons

 -----------------------------------------------------------------------
  General SCF calculation program by
  Eric Jon Sundstrom, Paul Horn, Yuezhi Mao, Dmitri Zuev, Alec White,
  David Stuck, Shaama M.S., Shane Yost, Joonho Lee, David Small,
  Daniel Levine, Susi Lehtola, Hugh Burton, Evgeny Epifanovsky
 -----------------------------------------------------------------------
 Exchange:     0.5000 Hartree-Fock + 0.5000 PTPSS-D3
 Correlation:  0.6250 PTPSS-D3
 Using Euler-Maclaurin-Lebedev (99,590) quadrature formula
 Dispersion:   Grimme D3
Running Object-Oriented ROKS (ROHF)
ROHF occupied orbitals are orthonormal
ROHF occupied orbitals are orthogonal to virtual orbitals
ROHF virtual orbitals are orthonormal
We will preform up to 15 macro iterations over saddle points until a stable solution is found
Energy prior to optimization (guess energy) = -290.267504771659
Begin Timing: Total SCF Calculation
Begin Timing: SCF Single Stationary Point Calculation
begin iterations for algorithm: GDM          
the SCF tolerance is set to 1.00e-08
    1    -290.2675047717      6.17e-01     00000  Descent step
    2    -290.5089450255      3.81e-01     00000  Descent step
    3    -290.6360175019      1.46e-01     00000  Normal BFGS step
    4    -290.6929591121      2.75e-01     00000  Dog-leg BFGS step
    5    -290.8172209892      6.75e-01     00000  Descent step
    6    -291.0160065455      2.95e-01     00000  Dog-leg BFGS step
    7    -291.0251793274      2.33e-01     00000  Normal BFGS step
    8    -291.0470756939      2.12e-02     00000  Normal BFGS step
    9    -291.0472935747      2.20e-02     00000  Normal BFGS step
   10    -291.0477939040      2.86e-03     00000  Normal BFGS step
   11    -291.0478015401      7.19e-04     00000  Normal BFGS step
   12    -291.0478027157      1.94e-04     00000  Normal BFGS step
   13    -291.0478027978      2.73e-05     00000  Normal BFGS step
   14    -291.0478028005      5.70e-06     00000  Normal BFGS step
   15    -291.0478028007      1.07e-06     00000  Normal BFGS step
   16    -291.0478028007      2.23e-07     00000  Normal BFGS step
   17    -291.0478028007      1.55e-07     00000  Normal BFGS step
   18    -291.0478028007      5.00e-08     00000  Normal BFGS step
   19    -291.0478028007      3.51e-09     00000 Convergence criterion met
The disked orbital energies are calculated using alpha and beta Focks
Timing for Single Stationary Point: 125.00s (wall), 995.19s (cpu)
Begin Timing: Stability
===================================================
Beginning Test for Internal Stability
===================================================
generating davidson guess vectors based on koopmans-like excitations
    1      2.48e-01     00000 Davidson Iteration
    2      7.39e-02     00000 Davidson Iteration
    3      1.49e-01     00000 Davidson Iteration
    4      1.79e-01     00000 Davidson Iteration
    5      8.34e-02     00000 Davidson Iteration
    6      3.71e-02     00000 Davidson Iteration
    7      7.00e-03     00000 Davidson Iteration
    8      1.88e-03     00000 Davidson Iteration
    9      8.69e-04     00000 Davidson Iteration
   10      3.28e-04     00000 Davidson Iteration
   11      1.37e-04     00000 Davidson Iteration
   12      1.43e-04     00000 Davidson Iteration
   13      9.48e-05     00000 Davidson Iteration
   14      5.87e-05     00000 Davidson Converged
converged_eigenvalues
   0.3920
   0.3920
Threshold for negative eigenvalues: -1.0e-05
solution was a local minimum (stable)
===================================================
End Test for Internal Stability
===================================================
Our SCF solution is stable!
The disked orbital energies are calculated using alpha and beta Focks
Timing for Total SCF: 302.00s (wall), 2398.06s (cpu)
 Total energy in the final basis set =     -291.0478028007
<S^2> =          0.750000000
    ==================================================
              The end of Object-Oriented SCFman       
    ==================================================
 
 Components of the MP2 correlation energy:
        aaaa  correlation energy =         0.0000000000 au
        abab  correlation energy =        -0.1414361600 au
        bbbb  correlation energy =         0.0000000000 au
        non-Brillouin singles    =        -0.0008155582 au

 Total  MP2   correlation energy =                    -0.14225172 au
        MP2         total energy =                  -291.19005452 au
 
 --------------------------------------------------------------
 
                    Orbital Energies (a.u.)
 --------------------------------------------------------------
 
 Alpha MOs
 -- Occupied --
-67.201  -5.626  -3.871  -3.863  -3.863  -0.618  -0.416  -0.416
 -0.274
 -- Virtual --
  0.014   0.040   0.040   0.052   0.052   0.047   0.087   0.103
  0.103   0.110   0.104   0.104   0.198   0.213   0.213   0.234
  0.234   0.225   0.261   0.261   0.270   0.304   0.304   0.324
  0.376   0.406   0.406   0.425   0.469   0.479   0.479   0.509
  0.532   0.532   0.565   0.558   0.558   0.575   0.575   0.592
  0.756   0.808   0.808   0.863   0.882   0.882   0.932   0.932
  0.973   0.985   0.985   1.005   1.037   1.037   1.122   1.122
  1.135   1.173   1.165   1.165   1.201   1.232   1.231   1.231
  1.271   1.271   1.347   1.391   1.391   1.445   1.598   1.766
  1.766   1.799   1.807   1.807   1.882   2.008   2.008   2.011
  2.507   2.595   2.595   3.112   3.112   3.124   3.751   3.751
  3.788   3.836   3.854   3.854   3.915   3.915   3.951   4.003
  4.003   4.107   4.130   4.185   4.202   4.202   4.241   4.287
  4.287   4.480   4.480   4.798   4.798   4.903   6.147   6.147
  6.394   6.863   6.863   9.569  10.225  10.448  10.448  22.535
 22.538  22.538  22.544  22.544  22.550  22.555  27.486  27.486
 27.617  27.837  27.837  39.714  39.973  39.973  56.700
 
 Beta MOs
 -- Occupied --
-67.197  -5.620  -3.856  -3.861  -3.861  -0.590  -0.405  -0.405
 -- Virtual --
 -0.042   0.018   0.043   0.043   0.056   0.056   0.057   0.102
  0.108   0.108   0.118   0.123   0.123   0.206   0.215   0.215
  0.239   0.239   0.243   0.271   0.271   0.271   0.319   0.319
  0.333   0.393   0.417   0.417   0.434   0.479   0.496   0.496
  0.519   0.539   0.539   0.568   0.569   0.569   0.583   0.583
  0.617   0.767   0.815   0.815   0.866   0.886   0.886   0.939
  0.939   0.980   0.989   0.989   1.011   1.043   1.043   1.129
  1.129   1.144   1.175   1.176   1.176   1.212   1.235   1.236
  1.236   1.290   1.290   1.356   1.417   1.417   1.462   1.611
  1.774   1.774   1.809   1.820   1.820   1.893   2.015   2.015
  2.027   2.526   2.606   2.606   3.120   3.120   3.131   3.754
  3.754   3.791   3.846   3.858   3.858   3.924   3.924   3.957
  4.013   4.013   4.115   4.141   4.195   4.208   4.208   4.245
  4.298   4.298   4.486   4.486   4.806   4.806   4.913   6.154
  6.154   6.406   6.872   6.872   9.585  10.239  10.457  10.457
 22.538  22.541  22.541  22.547  22.547  22.551  22.556  27.493
 27.493  27.628  27.841  27.841  39.723  39.976  39.976  56.706
 --------------------------------------------------------------
 
          Ground-State Mulliken Net Atomic Charges

     Atom                 Charge (a.u.)
  ----------------------------------------
      1 Si                    0.397490
      2 H                    -0.132488
      3 H                    -0.132501
      4 H                    -0.132501
  ----------------------------------------
  Sum of atomic charges =     0.000000

 -----------------------------------------------------------------
                    Cartesian Multipole Moments
 -----------------------------------------------------------------
    Charge (ESU x 10^10)
                 0.0000
    Dipole Moment (Debye)
         X       0.0000      Y      -0.0000      Z       0.0137
       Tot       0.0137
    Quadrupole Moments (Debye-Ang)
        XX     -15.8878     XY      -0.0000     YY     -15.8878
        XZ       0.0000     YZ      -0.0000     ZZ     -16.3048
    Octopole Moments (Debye-Ang^2)
       XXX       0.0000    XXY       0.8158    XYY       0.0000
       YYY      -0.8158    XXZ       0.3422    XYZ       0.0000
       YYZ       0.3422    XZZ       0.0000    YZZ      -0.0000
       ZZZ      -1.7544
    Hexadecapole Moments (Debye-Ang^3)
      XXXX     -41.9973   XXXY      -0.0000   XXYY     -13.9991
      XYYY      -0.0000   YYYY     -41.9973   XXXZ      -0.0000
      XXYZ       0.2593   XYYZ      -0.0000   YYYZ      -0.2592
      XXZZ     -12.4722   XYZZ      -0.0000   YYZZ     -12.4722
      XZZZ      -0.0000   YZZZ       0.0000   ZZZZ     -33.3240
 -----------------------------------------------------------------
Archival summary:
1\1\n0075.mhg0\SP\ROProcedureUnspecified\BasisUnspecified\i13(2)\yhljason\SatOct314:19:122020SatOct314:19:122020\0\\#,ROProcedureUnspecified,BasisUnspecified,\\0,2\Si\H,1,1.46802\H,1,1.46802,2,110.5\H,1,1.46802,2,110.5,3,122.613,0\\\@

 Total job time:  344.76s(wall), 2734.14s(cpu) 
 Sat Oct  3 14:19:12 2020

        *************************************************************
        *                                                           *
        *  Thank you very much for using Q-Chem.  Have a nice day.  *
        *                                                           *
        *************************************************************


 
User input: 2 of 83 of 8 
 
Q-Chem Developer Version!
                  Welcome to Q-Chem
     A Quantum Leap Into The Future Of Chemistry


 Q-Chem 5.1, Q-Chem, Inc., Pleasanton, CA (2018)

 Yihan Shao,  Zhengting Gan,  E. Epifanovsky,  A. T. B. Gilbert,  M. Wormit,  
 J. Kussmann,  A. W. Lange,  A. Behn,  Jia Deng,  Xintian Feng,  D. Ghosh,  
 M. Goldey,  P. R. Horn,  L. D. Jacobson,  I. Kaliman,  T. Kus,  A. Landau,  
 Jie Liu,  E. I. Proynov,  R. M. Richard,  R. P. Steele,  E. J. Sundstrom,  
 H. L. Woodcock III,  P. M. Zimmerman,  D. Zuev,  B. Albrecht,  E. Alguire,  
 S. A. Baeppler,  D. Barton,  Z. Benda,  Y. A. Bernard,  E. J. Berquist,  
 K. B. Bravaya,  H. Burton,  D. Casanova,  Chun-Min Chang,  Yunqing Chen,  
 A. Chien,  K. D. Closser,  M. P. Coons,  S. Coriani,  S. Dasgupta,  
 A. L. Dempwolff,  M. Diedenhofen,  Hainam Do,  R. G. Edgar,  Po-Tung Fang,  
 S. Faraji,  S. Fatehi,  Qingguo Feng,  K. D. Fenk,  J. Fosso-Tande,  
 Qinghui Ge,  A. Ghysels,  G. Gidofalvi,  J. Gomes,  J. Gonthier,  A. Gunina,  
 D. Hait,  M. W. D. Hanson-Heine,  P. H. P. Harbach,  A. W. Hauser,  
 J. E. Herr,  E. G. Hohenstein,  Z. C. Holden,  Kerwin Hui,  B. C. Huynh,  
 T.-C. Jagau,  Hyunjun Ji,  B. Kaduk,  K. Khistyaev,  Jaehoon Kim,  
 P. Klunzinger,  K. Koh,  D. Kosenkov,  L. Koulias,  T. Kowalczyk,  
 C. M. Krauter,  A. Kunitsa,  Ka Un Lao,  A. Laurent,  K. V. Lawler,  
 Joonho Lee,  D. Lefrancois,  S. Lehtola,  D. S. Levine,  Yi-Pei Li,  
 You-Sheng Lin,  Fenglai Liu,  E. Livshits,  A. Luenser,  P. Manohar,  
 E. Mansoor,  S. F. Manzer,  Shan-Ping Mao,  Yuezhi Mao,  N. Mardirossian,  
 A. V. Marenich,  T. Markovich,  L. A. Martinez-Martinez,  S. A. Maurer,  
 N. J. Mayhall,  S. C. McKenzie,  J.-M. Mewes,  A. F. Morrison,  
 J. W. Mullinax,  K. Nanda,  T. S. Nguyen-Beck,  R. Olivares-Amaya,  
 J. A. Parkhill,  T. M. Perrine,  F. Plasser,  P. Pokhilko,  S. Prager,  
 A. Prociuk,  E. Ramos,  D. R. Rehn,  F. Rob,  M. Schneider,  N. Sergueev,  
 S. M. Sharada,  S. Sharma,  D. W. Small,  T. Stauch,  T. Stein,  
 Yu-Chuan Su,  A. J. W. Thom,  A. Tkatchenko,  T. Tsuchimochi,  N. M. Tubman,  
 L. Vogt,  M. L. Vidal,  O. Vydrov,  M. A. Watson,  J. Wenzel,  
 M. de Wergifosse,  T. A. Wesolowski,  A. White,  J. Witte,  A. Yamada,  
 Jun Yang,  K. Yao,  S. Yeganeh,  S. R. Yost,  Zhi-Qiang You,  A. Zech,  
 Igor Ying Zhang,  Xing Zhang,  Yan Zhao,  Ying Zhu,  B. R. Brooks,  
 G. K. L. Chan,  C. J. Cramer,  M. S. Gordon,  W. J. Hehre,  A. Klamt,  
 M. W. Schmidt,  C. D. Sherrill,  D. G. Truhlar,  A. Aspuru-Guzik,  R. Baer,  
 A. T. Bell,  N. A. Besley,  Jeng-Da Chai,  A. E. DePrince, III,  
 R. A. DiStasio Jr.,  A. Dreuw,  B. D. Dunietz,  T. R. Furlani,  
 Chao-Ping Hsu,  Yousung Jung,  Jing Kong,  D. S. Lambrecht,  WanZhen Liang,  
 C. Ochsenfeld,  V. A. Rassolov,  L. V. Slipchenko,  J. E. Subotnik,  
 T. Van Voorhis,  J. M. Herbert,  A. I. Krylov,  P. M. W. Gill,  M. Head-Gordon

 Contributors to earlier versions of Q-Chem not listed above: 
 R. D. Adamson,  B. Austin,  J. Baker,  G. J. O. Beran,  K. Brandhorst,  
 S. T. Brown,  E. F. C. Byrd,  A. K. Chakraborty,  C.-L. Cheng,  
 Siu Hung Chien,  D. M. Chipman,  D. L. Crittenden,  H. Dachsel,  
 R. J. Doerksen,  A. D. Dutoi,  L. Fusti-Molnar,  W. A. Goddard III,  
 A. Golubeva-Zadorozhnaya,  S. R. Gwaltney,  G. Hawkins,  A. Heyden,  
 S. Hirata,  G. Kedziora,  F. J. Keil,  C. Kelley,  Jihan Kim,  R. A. King,  
 R. Z. Khaliullin,  P. P. Korambath,  W. Kurlancheek,  A. M. Lee,  M. S. Lee,  
 S. V. Levchenko,  Ching Yeh Lin,  D. Liotard,  R. C. Lochan,  I. Lotan,  
 P. E. Maslen,  N. Nair,  D. P. O'Neill,  D. Neuhauser,  E. Neuscamman,  
 C. M. Oana,  R. Olson,  B. Peters,  R. Peverati,  P. A. Pieniazek,  
 Y. M. Rhee,  J. Ritchie,  M. A. Rohrdanz,  E. Rosta,  N. J. Russ,  
 H. F. Schaefer III,  N. E. Schultz,  N. Shenvi,  A. C. Simmonett,  A. Sodt,  
 D. Stuck,  K. S. Thanthiriwatte,  V. Vanovschi,  Tao Wang,  A. Warshel,  
 C. F. Williams,  Q. Wu,  X. Xu,  W. Zhang

 Please cite Q-Chem as follows:
 Y. Shao et al., Mol. Phys. 113, 184-215 (2015)
 DOI: 10.1080/00268976.2014.952696

 Q-Chem 5.1.1 for Intel X86 EM64T Linux

 Parts of Q-Chem use Armadillo 8.300.2 (Tropical Shenanigans).
 http://arma.sourceforge.net/

 Q-Chem begins on Sat Oct  3 14:19:16 2020  

Host: n0075.mhg0
0

     Scratch files written to /local/scratch/users/yhljason/SiH3_PTPSS-D3_aug-cc-pcVTZ.inp20201003135124//
The previous job contains 0 fragments, simply inherited here
Input Ideriv = 0
Curr. Ideriv = -1
Max.  Ideriv = 0
Input Ideriv = 1
Curr. Ideriv = 0
Max.  Ideriv = 0

Checking the input file for inconsistencies... 	...done.

--------------------------------------------------------------
User input:
--------------------------------------------------------------
$molecule
read
$end

$rem

jobtype sp
method PTPSS-D3
xc_grid 000099000590
basis aug-cc-pcVTZ
max_scf_cycles 200
thresh 14
scf_convergence 8
mem_total 128000
cc_memory 96000
cc_backend xm
mem_static 1500
symmetry false
sym_ignore true
scf_guess read
unrestricted false
scf_algorithm gdm
n_frozen_core 0
$end

$multipole_field
XX 0.0001
$end


--------------------------------------------------------------
 Adding empirical dispersion correction 
 ----------------------------------------------------------------
 Doing -D3(0) with
 s6  =   0.75000
 s8  =   0.87900
 rs6 =   1.54100
 rs8 =   1.00000
 -D3 energy without 3body term =     -0.0002432811 hartrees
 ----------------------------------------------------------------
             Standard Nuclear Orientation (Angstroms)
    I     Atom           X                Y                Z
 ----------------------------------------------------------------
    1      Si      0.0000000000     0.0000000000     0.0819000000
    2      H       0.0000000000     1.3928000000    -0.3820000000
    3      H       1.2062000000    -0.6964000000    -0.3820000000
    4      H      -1.2062000000    -0.6964000000    -0.3820000000
 ----------------------------------------------------------------
 Nuclear Repulsion Energy =    15.7975270531 hartrees
 There are        9 alpha and        8 beta electrons
 Requested basis set is aug-cc-pCVTZ
 There are 50 shells and 144 basis functions

 Total QAlloc Memory Limit 128000 MB
 Mega-Array Size      1467 MB
 MEM_STATIC part      1500 MB

                       Distance Matrix (Angstroms)
             Si(  1)   H (  2)   H (  3)
   H (  2)  1.468024
   H (  3)  1.468024  2.412400
   H (  4)  1.468024  2.412400  2.412400
 
 Applying Cartesian multipole field
    Component          Value
    ---------          -----
     (2,0,0)        1.00000E-04
 Nucleus-field energy     =     0.0010391216 hartrees
 A cutoff of  1.0D-14 yielded   1275 shell pairs
 There are     10661 function pairs (     13878 Cartesian)
 
 -------------------------------------------------------
 OpenMP Integral Computing Module                       
 Release: version 1.0, May 2013, Q-Chem Inc. Pittsburgh 
 -------------------------------------------------------
 Integral Job Info:
 Integral job number is                      11
 Integral operator is                         1
 short-range coefficients                     0
 long-range coefficients              100000000
 Omega coefficients                           0
 if combine SR and LR in K                    0
 Integral screening is                        0
 Integral computing path is                   2
 max size of driver memory is            800000
 size of driver memory is                776718
 size of scratch memory is             29531563
 max col of scratch BK array              10000
 max len of scratch array in speh3          662
 max len of scratch index in speh4           32
 max int batch size is                      520
 min int batch size is                       52
 fixed nKL is                                31
 max L of basis functions is                  3
 order of int derivative is                   0
 number of shells is                         50
 number of basis is                         164
 number of cartesian basis is               164
 number of contracted shell pairs          1275
 number of primitive shell pairs           5508
 maxK2 (contraction) of shell pair          169
 max number of K2 of shell pair               1
 max number of CS2 of shell pair            196
 max number of PS2 of shell pair           1014
 mem total for path MDJ                  547738
 -------------------------------------------------------
 Smallest overlap matrix eigenvalue = 1.20E-04
 Guess MOs from SCF MO coefficient file
 Reading MOs from coefficient file
 Reading MOs from coefficient file
 A restricted hybrid HF-DFT SCF calculation will be
 performed using Geometric Direct Minimization
 Exchange:     0.5000 Hartree-Fock + 0.5000 PTPSS-D3
 Correlation:  0.6250 PTPSS-D3
 Using Euler-Maclaurin-Lebedev (99,590) quadrature formula
 Dispersion:   Grimme D3
 SCF converges when RMS gradient is below 1.0E-08
Using Q-Chem read-in guess as SCF_GUESS READ specified.

 using 8 threads for integral computing
 -------------------------------------------------------
 OpenMP Integral computing Module                
 Release: version 2.0, May 2017, Q-Chem Inc. Pleasanton 
 -------------------------------------------------------
TIMEINFO->: J/JK contribution 18.29 sec.
 -------------------------------------------------------
 OpenMP BLAS3 based DFT computing Module                
 Release: version 1.0, May 2013, Q-Chem Inc. Pittsburgh 
 -------------------------------------------------------
 ---------------------------------------
  Cycle       Energy        RMS Gradient
 ---------------------------------------
    1    -291.0489840220      5.88E-04 Normal BFGS step
TIMEINFO->: J/JK contribution 16.87 sec.
    2    -291.0489851833      3.27E-04 Normal BFGS step
TIMEINFO->: J/JK contribution 17.26 sec.
    3    -291.0489852920      1.25E-04 Normal BFGS step
TIMEINFO->: J/JK contribution 16.41 sec.
    4    -291.0489853003      2.58E-05 Normal BFGS step
TIMEINFO->: J/JK contribution 16.38 sec.
    5    -291.0489853010      5.67E-06 Normal BFGS step
TIMEINFO->: J/JK contribution 16.40 sec.
    6    -291.0489853010      2.40E-06 Normal BFGS step
TIMEINFO->: J/JK contribution 15.81 sec.
    7    -291.0489853010      8.07E-07 Normal BFGS step
TIMEINFO->: J/JK contribution 16.00 sec.
    8    -291.0489853010      1.36E-07 Normal BFGS step
TIMEINFO->: J/JK contribution 15.96 sec.
   GDM::WARNING energy changes are now smaller than effective accuracy.
   GDM::        calculation will continue, but THRESH should be increased
   GDM::        or SCF_CONVERGENCE decreased.
   GDM::        effective_thresh =   9.000000000000000E-011
    9    -291.0489853010      3.14E-08 Normal BFGS step
TIMEINFO->: J/JK contribution 14.88 sec.
   10    -291.0489853010      7.30E-09 Convergence criterion met
 ---------------------------------------
 SCF time:  CPU 476.11 s  wall 60.03 s
 SCF   energy in the final basis set = -291.04898530
 Total energy in the final basis set = -291.04898530
 
 Components of the MP2 correlation energy:
        aaaa  correlation energy =         0.0000000000 au
        abab  correlation energy =        -0.1414328424 au
        bbbb  correlation energy =         0.0000000000 au
        non-Brillouin singles    =        -0.0008151189 au

 Total  MP2   correlation energy =                    -0.14224796 au
        MP2         total energy =                  -291.19123326 au
 
 --------------------------------------------------------------
 
                    Orbital Energies (a.u.)
 --------------------------------------------------------------
 
 Alpha MOs
 -- Occupied --
-67.202  -5.626  -3.864  -3.864  -3.872  -0.618  -0.417  -0.417
 -0.274
 -- Virtual --
  0.011   0.035   0.038   0.045   0.047   0.049   0.084   0.101
  0.102   0.101   0.102   0.108   0.196   0.210   0.211   0.224
  0.232   0.233   0.258   0.259   0.269   0.304   0.304   0.322
  0.376   0.404   0.405   0.424   0.466   0.479   0.479   0.509
  0.531   0.531   0.556   0.557   0.564   0.574   0.575   0.593
  0.756   0.807   0.807   0.863   0.882   0.882   0.931   0.932
  0.973   0.984   0.984   1.004   1.036   1.036   1.121   1.121
  1.134   1.165   1.165   1.172   1.201   1.231   1.231   1.231
  1.270   1.271   1.346   1.391   1.392   1.444   1.597   1.765
  1.765   1.798   1.807   1.807   1.881   2.007   2.007   2.011
  2.507   2.595   2.595   3.111   3.112   3.123   3.750   3.750
  3.788   3.835   3.853   3.853   3.915   3.915   3.951   4.002
  4.002   4.106   4.129   4.185   4.201   4.202   4.241   4.287
  4.287   4.480   4.480   4.797   4.797   4.902   6.146   6.146
  6.393   6.863   6.863   9.568  10.225  10.448  10.448  22.535
 22.538  22.538  22.544  22.544  22.549  22.554  27.485  27.485
 27.616  27.836  27.836  39.714  39.973  39.973  56.699
 
 Beta MOs
 -- Occupied --
-67.198  -5.620  -3.861  -3.861  -3.856  -0.590  -0.406  -0.405
 -- Virtual --
 -0.043   0.016   0.040   0.042   0.055   0.053   0.053   0.101
  0.106   0.107   0.122   0.120   0.117   0.205   0.212   0.214
  0.242   0.237   0.238   0.270   0.270   0.269   0.317   0.317
  0.332   0.392   0.416   0.416   0.433   0.478   0.494   0.494
  0.518   0.538   0.538   0.568   0.568   0.567   0.580   0.581
  0.616   0.766   0.814   0.814   0.866   0.885   0.885   0.939
  0.939   0.979   0.988   0.988   1.009   1.042   1.042   1.128
  1.129   1.143   1.175   1.175   1.175   1.211   1.234   1.235
  1.235   1.289   1.290   1.355   1.416   1.416   1.461   1.610
  1.774   1.774   1.808   1.819   1.819   1.892   2.014   2.014
  2.027   2.525   2.605   2.606   3.119   3.119   3.131   3.754
  3.754   3.791   3.845   3.857   3.857   3.924   3.924   3.956
  4.012   4.013   4.114   4.141   4.194   4.208   4.208   4.245
  4.297   4.298   4.486   4.486   4.805   4.806   4.913   6.154
  6.154   6.405   6.871   6.871   9.584  10.238  10.456  10.456
 22.538  22.541  22.541  22.546  22.546  22.551  22.556  27.492
 27.492  27.627  27.841  27.841  39.723  39.976  39.976  56.705
 --------------------------------------------------------------
 
          Ground-State Mulliken Net Atomic Charges

     Atom                 Charge (a.u.)
  ----------------------------------------
      1 Si                    0.398645
      2 H                    -0.131575
      3 H                    -0.133535
      4 H                    -0.133535
  ----------------------------------------
  Sum of atomic charges =     0.000000

 -----------------------------------------------------------------
                    Cartesian Multipole Moments
 -----------------------------------------------------------------
    Charge (ESU x 10^10)
                -0.0000
    Dipole Moment (Debye)
         X      -0.0000      Y       0.0031      Z       0.0149
       Tot       0.0152
    Quadrupole Moments (Debye-Ang)
        XX     -15.9223     XY      -0.0000     YY     -15.8875
        XZ      -0.0000     YZ      -0.0012     ZZ     -16.3069
    Octopole Moments (Debye-Ang^2)
       XXX      -0.0000    XXY       0.8334    XYY      -0.0000
       YYY      -0.8057    XXZ       0.3511    XYZ       0.0000
       YYZ       0.3425    XZZ      -0.0000    YZZ       0.0024
       ZZZ      -1.7517
    Hexadecapole Moments (Debye-Ang^3)
      XXXX     -42.1935   XXXY      -0.0000   XXYY     -14.0335
      XYYY       0.0000   YYYY     -41.9977   XXXZ      -0.0000
      XXYZ       0.2527   XYYZ      -0.0000   YYYZ      -0.2629
      XXZZ     -12.5041   XYZZ       0.0000   YYZZ     -12.4765
      XZZZ      -0.0000   YZZZ      -0.0016   ZZZZ     -33.3451
 -----------------------------------------------------------------
Archival summary:
1\1\n0075.mhg0\SP\ROProcedureUnspecified\BasisUnspecified\i13(2)\yhljason\SatOct314:20:522020SatOct314:20:522020\0\\#,ROProcedureUnspecified,BasisUnspecified,\\0,2\Si\H,1,1.46802\H,1,1.46802,2,110.5\H,1,1.46802,2,110.5,3,122.613,0\\\@

 Total job time:  96.15s(wall), 756.12s(cpu) 
 Sat Oct  3 14:20:52 2020

        *************************************************************
        *                                                           *
        *  Thank you very much for using Q-Chem.  Have a nice day.  *
        *                                                           *
        *************************************************************


 
User input: 4 of 8 
 
Q-Chem Developer Version!
                  Welcome to Q-Chem
     A Quantum Leap Into The Future Of Chemistry


 Q-Chem 5.1, Q-Chem, Inc., Pleasanton, CA (2018)

 Yihan Shao,  Zhengting Gan,  E. Epifanovsky,  A. T. B. Gilbert,  M. Wormit,  
 J. Kussmann,  A. W. Lange,  A. Behn,  Jia Deng,  Xintian Feng,  D. Ghosh,  
 M. Goldey,  P. R. Horn,  L. D. Jacobson,  I. Kaliman,  T. Kus,  A. Landau,  
 Jie Liu,  E. I. Proynov,  R. M. Richard,  R. P. Steele,  E. J. Sundstrom,  
 H. L. Woodcock III,  P. M. Zimmerman,  D. Zuev,  B. Albrecht,  E. Alguire,  
 S. A. Baeppler,  D. Barton,  Z. Benda,  Y. A. Bernard,  E. J. Berquist,  
 K. B. Bravaya,  H. Burton,  D. Casanova,  Chun-Min Chang,  Yunqing Chen,  
 A. Chien,  K. D. Closser,  M. P. Coons,  S. Coriani,  S. Dasgupta,  
 A. L. Dempwolff,  M. Diedenhofen,  Hainam Do,  R. G. Edgar,  Po-Tung Fang,  
 S. Faraji,  S. Fatehi,  Qingguo Feng,  K. D. Fenk,  J. Fosso-Tande,  
 Qinghui Ge,  A. Ghysels,  G. Gidofalvi,  J. Gomes,  J. Gonthier,  A. Gunina,  
 D. Hait,  M. W. D. Hanson-Heine,  P. H. P. Harbach,  A. W. Hauser,  
 J. E. Herr,  E. G. Hohenstein,  Z. C. Holden,  Kerwin Hui,  B. C. Huynh,  
 T.-C. Jagau,  Hyunjun Ji,  B. Kaduk,  K. Khistyaev,  Jaehoon Kim,  
 P. Klunzinger,  K. Koh,  D. Kosenkov,  L. Koulias,  T. Kowalczyk,  
 C. M. Krauter,  A. Kunitsa,  Ka Un Lao,  A. Laurent,  K. V. Lawler,  
 Joonho Lee,  D. Lefrancois,  S. Lehtola,  D. S. Levine,  Yi-Pei Li,  
 You-Sheng Lin,  Fenglai Liu,  E. Livshits,  A. Luenser,  P. Manohar,  
 E. Mansoor,  S. F. Manzer,  Shan-Ping Mao,  Yuezhi Mao,  N. Mardirossian,  
 A. V. Marenich,  T. Markovich,  L. A. Martinez-Martinez,  S. A. Maurer,  
 N. J. Mayhall,  S. C. McKenzie,  J.-M. Mewes,  A. F. Morrison,  
 J. W. Mullinax,  K. Nanda,  T. S. Nguyen-Beck,  R. Olivares-Amaya,  
 J. A. Parkhill,  T. M. Perrine,  F. Plasser,  P. Pokhilko,  S. Prager,  
 A. Prociuk,  E. Ramos,  D. R. Rehn,  F. Rob,  M. Schneider,  N. Sergueev,  
 S. M. Sharada,  S. Sharma,  D. W. Small,  T. Stauch,  T. Stein,  
 Yu-Chuan Su,  A. J. W. Thom,  A. Tkatchenko,  T. Tsuchimochi,  N. M. Tubman,  
 L. Vogt,  M. L. Vidal,  O. Vydrov,  M. A. Watson,  J. Wenzel,  
 M. de Wergifosse,  T. A. Wesolowski,  A. White,  J. Witte,  A. Yamada,  
 Jun Yang,  K. Yao,  S. Yeganeh,  S. R. Yost,  Zhi-Qiang You,  A. Zech,  
 Igor Ying Zhang,  Xing Zhang,  Yan Zhao,  Ying Zhu,  B. R. Brooks,  
 G. K. L. Chan,  C. J. Cramer,  M. S. Gordon,  W. J. Hehre,  A. Klamt,  
 M. W. Schmidt,  C. D. Sherrill,  D. G. Truhlar,  A. Aspuru-Guzik,  R. Baer,  
 A. T. Bell,  N. A. Besley,  Jeng-Da Chai,  A. E. DePrince, III,  
 R. A. DiStasio Jr.,  A. Dreuw,  B. D. Dunietz,  T. R. Furlani,  
 Chao-Ping Hsu,  Yousung Jung,  Jing Kong,  D. S. Lambrecht,  WanZhen Liang,  
 C. Ochsenfeld,  V. A. Rassolov,  L. V. Slipchenko,  J. E. Subotnik,  
 T. Van Voorhis,  J. M. Herbert,  A. I. Krylov,  P. M. W. Gill,  M. Head-Gordon

 Contributors to earlier versions of Q-Chem not listed above: 
 R. D. Adamson,  B. Austin,  J. Baker,  G. J. O. Beran,  K. Brandhorst,  
 S. T. Brown,  E. F. C. Byrd,  A. K. Chakraborty,  C.-L. Cheng,  
 Siu Hung Chien,  D. M. Chipman,  D. L. Crittenden,  H. Dachsel,  
 R. J. Doerksen,  A. D. Dutoi,  L. Fusti-Molnar,  W. A. Goddard III,  
 A. Golubeva-Zadorozhnaya,  S. R. Gwaltney,  G. Hawkins,  A. Heyden,  
 S. Hirata,  G. Kedziora,  F. J. Keil,  C. Kelley,  Jihan Kim,  R. A. King,  
 R. Z. Khaliullin,  P. P. Korambath,  W. Kurlancheek,  A. M. Lee,  M. S. Lee,  
 S. V. Levchenko,  Ching Yeh Lin,  D. Liotard,  R. C. Lochan,  I. Lotan,  
 P. E. Maslen,  N. Nair,  D. P. O'Neill,  D. Neuhauser,  E. Neuscamman,  
 C. M. Oana,  R. Olson,  B. Peters,  R. Peverati,  P. A. Pieniazek,  
 Y. M. Rhee,  J. Ritchie,  M. A. Rohrdanz,  E. Rosta,  N. J. Russ,  
 H. F. Schaefer III,  N. E. Schultz,  N. Shenvi,  A. C. Simmonett,  A. Sodt,  
 D. Stuck,  K. S. Thanthiriwatte,  V. Vanovschi,  Tao Wang,  A. Warshel,  
 C. F. Williams,  Q. Wu,  X. Xu,  W. Zhang

 Please cite Q-Chem as follows:
 Y. Shao et al., Mol. Phys. 113, 184-215 (2015)
 DOI: 10.1080/00268976.2014.952696

 Q-Chem 5.1.1 for Intel X86 EM64T Linux

 Parts of Q-Chem use Armadillo 8.300.2 (Tropical Shenanigans).
 http://arma.sourceforge.net/

 Q-Chem begins on Sat Oct  3 14:20:52 2020  

Host: n0075.mhg0
0

     Scratch files written to /local/scratch/users/yhljason/SiH3_PTPSS-D3_aug-cc-pcVTZ.inp20201003135124//
The previous job contains 0 fragments, simply inherited here
Input Ideriv = 0
Curr. Ideriv = -1
Max.  Ideriv = 0
Input Ideriv = 1
Curr. Ideriv = 0
Max.  Ideriv = 0

Checking the input file for inconsistencies... 	...done.

--------------------------------------------------------------
User input:
--------------------------------------------------------------
$molecule
read
$end

$rem

jobtype sp
method PTPSS-D3
xc_grid 000099000590
basis aug-cc-pcVTZ
max_scf_cycles 200
thresh 14
scf_convergence 8
mem_total 128000
cc_memory 96000
cc_backend xm
mem_static 1500
symmetry false
sym_ignore true
scf_guess read
unrestricted false
scf_algorithm gdm
n_frozen_core 0
$end

$multipole_field
XX -0.0001
$end


--------------------------------------------------------------
 Adding empirical dispersion correction 
 ----------------------------------------------------------------
 Doing -D3(0) with
 s6  =   0.75000
 s8  =   0.87900
 rs6 =   1.54100
 rs8 =   1.00000
 -D3 energy without 3body term =     -0.0002432811 hartrees
 ----------------------------------------------------------------
             Standard Nuclear Orientation (Angstroms)
    I     Atom           X                Y                Z
 ----------------------------------------------------------------
    1      Si      0.0000000000     0.0000000000     0.0819000000
    2      H       0.0000000000     1.3928000000    -0.3820000000
    3      H       1.2062000000    -0.6964000000    -0.3820000000
    4      H      -1.2062000000    -0.6964000000    -0.3820000000
 ----------------------------------------------------------------
 Nuclear Repulsion Energy =    15.7975270531 hartrees
 There are        9 alpha and        8 beta electrons
 Requested basis set is aug-cc-pCVTZ
 There are 50 shells and 144 basis functions

 Total QAlloc Memory Limit 128000 MB
 Mega-Array Size      1467 MB
 MEM_STATIC part      1500 MB

                       Distance Matrix (Angstroms)
             Si(  1)   H (  2)   H (  3)
   H (  2)  1.468024
   H (  3)  1.468024  2.412400
   H (  4)  1.468024  2.412400  2.412400
 
 Applying Cartesian multipole field
    Component          Value
    ---------          -----
     (2,0,0)       -1.00000E-04
 Nucleus-field energy     =    -0.0010391216 hartrees
 A cutoff of  1.0D-14 yielded   1275 shell pairs
 There are     10661 function pairs (     13878 Cartesian)
 
 -------------------------------------------------------
 OpenMP Integral Computing Module                       
 Release: version 1.0, May 2013, Q-Chem Inc. Pittsburgh 
 -------------------------------------------------------
 Integral Job Info:
 Integral job number is                      11
 Integral operator is                         1
 short-range coefficients                     0
 long-range coefficients              100000000
 Omega coefficients                           0
 if combine SR and LR in K                    0
 Integral screening is                        0
 Integral computing path is                   2
 max size of driver memory is            800000
 size of driver memory is                776718
 size of scratch memory is             29531563
 max col of scratch BK array              10000
 max len of scratch array in speh3          662
 max len of scratch index in speh4           32
 max int batch size is                      520
 min int batch size is                       52
 fixed nKL is                                31
 max L of basis functions is                  3
 order of int derivative is                   0
 number of shells is                         50
 number of basis is                         164
 number of cartesian basis is               164
 number of contracted shell pairs          1275
 number of primitive shell pairs           5508
 maxK2 (contraction) of shell pair          169
 max number of K2 of shell pair               1
 max number of CS2 of shell pair            196
 max number of PS2 of shell pair           1014
 mem total for path MDJ                  547738
 -------------------------------------------------------
 Smallest overlap matrix eigenvalue = 1.20E-04
 Guess MOs from SCF MO coefficient file
 Reading MOs from coefficient file
 Reading MOs from coefficient file
 A restricted hybrid HF-DFT SCF calculation will be
 performed using Geometric Direct Minimization
 Exchange:     0.5000 Hartree-Fock + 0.5000 PTPSS-D3
 Correlation:  0.6250 PTPSS-D3
 Using Euler-Maclaurin-Lebedev (99,590) quadrature formula
 Dispersion:   Grimme D3
 SCF converges when RMS gradient is below 1.0E-08
Using Q-Chem read-in guess as SCF_GUESS READ specified.

 using 8 threads for integral computing
 -------------------------------------------------------
 OpenMP Integral computing Module                
 Release: version 2.0, May 2017, Q-Chem Inc. Pleasanton 
 -------------------------------------------------------
TIMEINFO->: J/JK contribution 16.98 sec.
 -------------------------------------------------------
 OpenMP BLAS3 based DFT computing Module                
 Release: version 1.0, May 2013, Q-Chem Inc. Pittsburgh 
 -------------------------------------------------------
 ---------------------------------------
  Cycle       Energy        RMS Gradient
 ---------------------------------------
    1    -291.0466177359      1.14E-03 Normal BFGS step
TIMEINFO->: J/JK contribution 16.47 sec.
    2    -291.0466223889      6.37E-04 Normal BFGS step
TIMEINFO->: J/JK contribution 16.86 sec.
    3    -291.0466228178      2.40E-04 Normal BFGS step
TIMEINFO->: J/JK contribution 16.22 sec.
    4    -291.0466228497      5.01E-05 Normal BFGS step
TIMEINFO->: J/JK contribution 16.18 sec.
    5    -291.0466228521      1.06E-05 Normal BFGS step
TIMEINFO->: J/JK contribution 16.15 sec.
    6    -291.0466228522      3.57E-06 Normal BFGS step
TIMEINFO->: J/JK contribution 18.17 sec.
    7    -291.0466228522      1.27E-06 Normal BFGS step
TIMEINFO->: J/JK contribution 17.82 sec.
    8    -291.0466228522      3.12E-07 Normal BFGS step
TIMEINFO->: J/JK contribution 18.10 sec.
    9    -291.0466228522      5.38E-08 Normal BFGS step
TIMEINFO->: J/JK contribution 17.58 sec.
   10    -291.0466228522      1.35E-08 Normal BFGS step
TIMEINFO->: J/JK contribution 16.20 sec.
   GDM::WARNING energy changes are now smaller than effective accuracy.
   GDM::        calculation will continue, but THRESH should be increased
   GDM::        or SCF_CONVERGENCE decreased.
   GDM::        effective_thresh =   9.000000000000000E-011
   11    -291.0466228522      1.99E-09 Convergence criterion met
 ---------------------------------------
 SCF time:  CPU 541.67 s  wall 68.30 s
 SCF   energy in the final basis set = -291.04662285
 Total energy in the final basis set = -291.04662285
 
 Components of the MP2 correlation energy:
        aaaa  correlation energy =         0.0000000000 au
        abab  correlation energy =        -0.1414394961 au
        bbbb  correlation energy =         0.0000000000 au
        non-Brillouin singles    =        -0.0008159976 au

 Total  MP2   correlation energy =                    -0.14225549 au
        MP2         total energy =                  -291.18887835 au
 
 --------------------------------------------------------------
 
                    Orbital Energies (a.u.)
 --------------------------------------------------------------
 
 Alpha MOs
 -- Occupied --
-67.201  -5.625  -3.863  -3.863  -3.871  -0.617  -0.416  -0.415
 -0.273
 -- Virtual --
  0.016   0.040   0.042   0.048   0.053   0.055   0.086   0.104
  0.104   0.105   0.106   0.113   0.199   0.214   0.216   0.227
  0.235   0.236   0.260   0.261   0.272   0.306   0.307   0.324
  0.377   0.406   0.407   0.427   0.469   0.481   0.481   0.510
  0.533   0.533   0.558   0.559   0.566   0.576   0.577   0.595
  0.757   0.808   0.808   0.864   0.883   0.883   0.933   0.933
  0.974   0.986   0.986   1.006   1.037   1.037   1.122   1.123
  1.135   1.166   1.166   1.173   1.202   1.232   1.232   1.233
  1.272   1.272   1.348   1.393   1.393   1.446   1.599   1.767
  1.767   1.799   1.808   1.808   1.882   2.009   2.009   2.012
  2.508   2.596   2.596   3.113   3.113   3.125   3.751   3.751
  3.789   3.836   3.854   3.855   3.916   3.916   3.952   4.003
  4.003   4.107   4.130   4.186   4.203   4.203   4.242   4.288
  4.288   4.481   4.481   4.798   4.798   4.903   6.147   6.147
  6.394   6.864   6.864   9.569  10.226  10.449  10.449  22.536
 22.539  22.539  22.545  22.545  22.550  22.555  27.486  27.486
 27.617  27.837  27.837  39.715  39.974  39.974  56.700
 
 Beta MOs
 -- Occupied --
-67.197  -5.619  -3.860  -3.860  -3.855  -0.589  -0.405  -0.404
 -- Virtual --
 -0.042   0.021   0.045   0.048   0.058   0.058   0.059   0.103
  0.109   0.110   0.124   0.125   0.121   0.208   0.217   0.218
  0.244   0.241   0.241   0.272   0.273   0.272   0.319   0.320
  0.334   0.394   0.417   0.418   0.435   0.481   0.496   0.496
  0.520   0.540   0.540   0.570   0.570   0.569   0.583   0.584
  0.617   0.768   0.816   0.816   0.867   0.886   0.886   0.940
  0.940   0.980   0.990   0.990   1.012   1.044   1.044   1.130
  1.131   1.145   1.177   1.177   1.176   1.212   1.236   1.236
  1.236   1.291   1.291   1.356   1.417   1.418   1.463   1.612
  1.775   1.775   1.810   1.820   1.820   1.894   2.016   2.016
  2.028   2.526   2.606   2.607   3.120   3.121   3.132   3.755
  3.755   3.792   3.846   3.858   3.858   3.925   3.925   3.957
  4.014   4.014   4.115   4.142   4.195   4.209   4.209   4.246
  4.298   4.299   4.487   4.487   4.807   4.807   4.914   6.155
  6.155   6.406   6.872   6.872   9.585  10.239  10.457  10.457
 22.539  22.542  22.542  22.547  22.547  22.552  22.557  27.493
 27.493  27.628  27.842  27.842  39.724  39.977  39.977  56.706
 --------------------------------------------------------------
 
          Ground-State Mulliken Net Atomic Charges

     Atom                 Charge (a.u.)
  ----------------------------------------
      1 Si                    0.396365
      2 H                    -0.133400
      3 H                    -0.131483
      4 H                    -0.131483
  ----------------------------------------
  Sum of atomic charges =    -0.000000

 -----------------------------------------------------------------
                    Cartesian Multipole Moments
 -----------------------------------------------------------------
    Charge (ESU x 10^10)
                -0.0000
    Dipole Moment (Debye)
         X       0.0000      Y      -0.0031      Z       0.0125
       Tot       0.0129
    Quadrupole Moments (Debye-Ang)
        XX     -15.8536     XY       0.0000     YY     -15.8882
        XZ      -0.0000     YZ       0.0012     ZZ     -16.3028
    Octopole Moments (Debye-Ang^2)
       XXX       0.0000    XXY       0.7983    XYY      -0.0000
       YYY      -0.8257    XXZ       0.3333    XYZ      -0.0000
       YYZ       0.3419    XZZ      -0.0000    YZZ      -0.0023
       ZZZ      -1.7570
    Hexadecapole Moments (Debye-Ang^3)
      XXXX     -41.8036   XXXY       0.0000   XXYY     -13.9651
      XYYY       0.0000   YYYY     -41.9971   XXXZ       0.0000
      XXYZ       0.2658   XYYZ       0.0000   YYYZ      -0.2556
      XXZZ     -12.4408   XYZZ       0.0000   YYZZ     -12.4681
      XZZZ      -0.0000   YZZZ       0.0016   ZZZZ     -33.3034
 -----------------------------------------------------------------
Archival summary:
1\1\n0075.mhg0\SP\ROProcedureUnspecified\BasisUnspecified\i13(2)\yhljason\SatOct314:22:352020SatOct314:22:352020\0\\#,ROProcedureUnspecified,BasisUnspecified,\\0,2\Si\H,1,1.46802\H,1,1.46802,2,110.5\H,1,1.46802,2,110.5,3,122.613,0\\\@

 Total job time:  102.79s(wall), 809.60s(cpu) 
 Sat Oct  3 14:22:35 2020

        *************************************************************
        *                                                           *
        *  Thank you very much for using Q-Chem.  Have a nice day.  *
        *                                                           *
        *************************************************************


 
User input: 5 of 8 
 
Q-Chem Developer Version!
                  Welcome to Q-Chem
     A Quantum Leap Into The Future Of Chemistry


 Q-Chem 5.1, Q-Chem, Inc., Pleasanton, CA (2018)

 Yihan Shao,  Zhengting Gan,  E. Epifanovsky,  A. T. B. Gilbert,  M. Wormit,  
 J. Kussmann,  A. W. Lange,  A. Behn,  Jia Deng,  Xintian Feng,  D. Ghosh,  
 M. Goldey,  P. R. Horn,  L. D. Jacobson,  I. Kaliman,  T. Kus,  A. Landau,  
 Jie Liu,  E. I. Proynov,  R. M. Richard,  R. P. Steele,  E. J. Sundstrom,  
 H. L. Woodcock III,  P. M. Zimmerman,  D. Zuev,  B. Albrecht,  E. Alguire,  
 S. A. Baeppler,  D. Barton,  Z. Benda,  Y. A. Bernard,  E. J. Berquist,  
 K. B. Bravaya,  H. Burton,  D. Casanova,  Chun-Min Chang,  Yunqing Chen,  
 A. Chien,  K. D. Closser,  M. P. Coons,  S. Coriani,  S. Dasgupta,  
 A. L. Dempwolff,  M. Diedenhofen,  Hainam Do,  R. G. Edgar,  Po-Tung Fang,  
 S. Faraji,  S. Fatehi,  Qingguo Feng,  K. D. Fenk,  J. Fosso-Tande,  
 Qinghui Ge,  A. Ghysels,  G. Gidofalvi,  J. Gomes,  J. Gonthier,  A. Gunina,  
 D. Hait,  M. W. D. Hanson-Heine,  P. H. P. Harbach,  A. W. Hauser,  
 J. E. Herr,  E. G. Hohenstein,  Z. C. Holden,  Kerwin Hui,  B. C. Huynh,  
 T.-C. Jagau,  Hyunjun Ji,  B. Kaduk,  K. Khistyaev,  Jaehoon Kim,  
 P. Klunzinger,  K. Koh,  D. Kosenkov,  L. Koulias,  T. Kowalczyk,  
 C. M. Krauter,  A. Kunitsa,  Ka Un Lao,  A. Laurent,  K. V. Lawler,  
 Joonho Lee,  D. Lefrancois,  S. Lehtola,  D. S. Levine,  Yi-Pei Li,  
 You-Sheng Lin,  Fenglai Liu,  E. Livshits,  A. Luenser,  P. Manohar,  
 E. Mansoor,  S. F. Manzer,  Shan-Ping Mao,  Yuezhi Mao,  N. Mardirossian,  
 A. V. Marenich,  T. Markovich,  L. A. Martinez-Martinez,  S. A. Maurer,  
 N. J. Mayhall,  S. C. McKenzie,  J.-M. Mewes,  A. F. Morrison,  
 J. W. Mullinax,  K. Nanda,  T. S. Nguyen-Beck,  R. Olivares-Amaya,  
 J. A. Parkhill,  T. M. Perrine,  F. Plasser,  P. Pokhilko,  S. Prager,  
 A. Prociuk,  E. Ramos,  D. R. Rehn,  F. Rob,  M. Schneider,  N. Sergueev,  
 S. M. Sharada,  S. Sharma,  D. W. Small,  T. Stauch,  T. Stein,  
 Yu-Chuan Su,  A. J. W. Thom,  A. Tkatchenko,  T. Tsuchimochi,  N. M. Tubman,  
 L. Vogt,  M. L. Vidal,  O. Vydrov,  M. A. Watson,  J. Wenzel,  
 M. de Wergifosse,  T. A. Wesolowski,  A. White,  J. Witte,  A. Yamada,  
 Jun Yang,  K. Yao,  S. Yeganeh,  S. R. Yost,  Zhi-Qiang You,  A. Zech,  
 Igor Ying Zhang,  Xing Zhang,  Yan Zhao,  Ying Zhu,  B. R. Brooks,  
 G. K. L. Chan,  C. J. Cramer,  M. S. Gordon,  W. J. Hehre,  A. Klamt,  
 M. W. Schmidt,  C. D. Sherrill,  D. G. Truhlar,  A. Aspuru-Guzik,  R. Baer,  
 A. T. Bell,  N. A. Besley,  Jeng-Da Chai,  A. E. DePrince, III,  
 R. A. DiStasio Jr.,  A. Dreuw,  B. D. Dunietz,  T. R. Furlani,  
 Chao-Ping Hsu,  Yousung Jung,  Jing Kong,  D. S. Lambrecht,  WanZhen Liang,  
 C. Ochsenfeld,  V. A. Rassolov,  L. V. Slipchenko,  J. E. Subotnik,  
 T. Van Voorhis,  J. M. Herbert,  A. I. Krylov,  P. M. W. Gill,  M. Head-Gordon

 Contributors to earlier versions of Q-Chem not listed above: 
 R. D. Adamson,  B. Austin,  J. Baker,  G. J. O. Beran,  K. Brandhorst,  
 S. T. Brown,  E. F. C. Byrd,  A. K. Chakraborty,  C.-L. Cheng,  
 Siu Hung Chien,  D. M. Chipman,  D. L. Crittenden,  H. Dachsel,  
 R. J. Doerksen,  A. D. Dutoi,  L. Fusti-Molnar,  W. A. Goddard III,  
 A. Golubeva-Zadorozhnaya,  S. R. Gwaltney,  G. Hawkins,  A. Heyden,  
 S. Hirata,  G. Kedziora,  F. J. Keil,  C. Kelley,  Jihan Kim,  R. A. King,  
 R. Z. Khaliullin,  P. P. Korambath,  W. Kurlancheek,  A. M. Lee,  M. S. Lee,  
 S. V. Levchenko,  Ching Yeh Lin,  D. Liotard,  R. C. Lochan,  I. Lotan,  
 P. E. Maslen,  N. Nair,  D. P. O'Neill,  D. Neuhauser,  E. Neuscamman,  
 C. M. Oana,  R. Olson,  B. Peters,  R. Peverati,  P. A. Pieniazek,  
 Y. M. Rhee,  J. Ritchie,  M. A. Rohrdanz,  E. Rosta,  N. J. Russ,  
 H. F. Schaefer III,  N. E. Schultz,  N. Shenvi,  A. C. Simmonett,  A. Sodt,  
 D. Stuck,  K. S. Thanthiriwatte,  V. Vanovschi,  Tao Wang,  A. Warshel,  
 C. F. Williams,  Q. Wu,  X. Xu,  W. Zhang

 Please cite Q-Chem as follows:
 Y. Shao et al., Mol. Phys. 113, 184-215 (2015)
 DOI: 10.1080/00268976.2014.952696

 Q-Chem 5.1.1 for Intel X86 EM64T Linux

 Parts of Q-Chem use Armadillo 8.300.2 (Tropical Shenanigans).
 http://arma.sourceforge.net/

 Q-Chem begins on Sat Oct  3 14:22:35 2020  

Host: n0075.mhg0
0

     Scratch files written to /local/scratch/users/yhljason/SiH3_PTPSS-D3_aug-cc-pcVTZ.inp20201003135124//
The previous job contains 0 fragments, simply inherited here
Input Ideriv = 0
Curr. Ideriv = -1
Max.  Ideriv = 0
Input Ideriv = 1
Curr. Ideriv = 0
Max.  Ideriv = 0

Checking the input file for inconsistencies... 	...done.

--------------------------------------------------------------
User input:
--------------------------------------------------------------
$molecule
read
$end

$rem

jobtype sp
method PTPSS-D3
xc_grid 000099000590
basis aug-cc-pcVTZ
max_scf_cycles 200
thresh 14
scf_convergence 8
mem_total 128000
cc_memory 96000
cc_backend xm
mem_static 1500
symmetry false
sym_ignore true
scf_guess read
unrestricted false
scf_algorithm gdm
n_frozen_core 0
$end

$multipole_field
YY 0.0001
$end


--------------------------------------------------------------
 Adding empirical dispersion correction 
 ----------------------------------------------------------------
 Doing -D3(0) with
 s6  =   0.75000
 s8  =   0.87900
 rs6 =   1.54100
 rs8 =   1.00000
 -D3 energy without 3body term =     -0.0002432811 hartrees
 ----------------------------------------------------------------
             Standard Nuclear Orientation (Angstroms)
    I     Atom           X                Y                Z
 ----------------------------------------------------------------
    1      Si      0.0000000000     0.0000000000     0.0819000000
    2      H       0.0000000000     1.3928000000    -0.3820000000
    3      H       1.2062000000    -0.6964000000    -0.3820000000
    4      H      -1.2062000000    -0.6964000000    -0.3820000000
 ----------------------------------------------------------------
 Nuclear Repulsion Energy =    15.7975270531 hartrees
 There are        9 alpha and        8 beta electrons
 Requested basis set is aug-cc-pCVTZ
 There are 50 shells and 144 basis functions

 Total QAlloc Memory Limit 128000 MB
 Mega-Array Size      1467 MB
 MEM_STATIC part      1500 MB

                       Distance Matrix (Angstroms)
             Si(  1)   H (  2)   H (  3)
   H (  2)  1.468024
   H (  3)  1.468024  2.412400
   H (  4)  1.468024  2.412400  2.412400
 
 Applying Cartesian multipole field
    Component          Value
    ---------          -----
     (0,2,0)        1.00000E-04
 Nucleus-field energy     =     0.0010391219 hartrees
 A cutoff of  1.0D-14 yielded   1275 shell pairs
 There are     10661 function pairs (     13878 Cartesian)
 
 -------------------------------------------------------
 OpenMP Integral Computing Module                       
 Release: version 1.0, May 2013, Q-Chem Inc. Pittsburgh 
 -------------------------------------------------------
 Integral Job Info:
 Integral job number is                      11
 Integral operator is                         1
 short-range coefficients                     0
 long-range coefficients              100000000
 Omega coefficients                           0
 if combine SR and LR in K                    0
 Integral screening is                        0
 Integral computing path is                   2
 max size of driver memory is            800000
 size of driver memory is                776718
 size of scratch memory is             29531563
 max col of scratch BK array              10000
 max len of scratch array in speh3          662
 max len of scratch index in speh4           32
 max int batch size is                      520
 min int batch size is                       52
 fixed nKL is                                31
 max L of basis functions is                  3
 order of int derivative is                   0
 number of shells is                         50
 number of basis is                         164
 number of cartesian basis is               164
 number of contracted shell pairs          1275
 number of primitive shell pairs           5508
 maxK2 (contraction) of shell pair          169
 max number of K2 of shell pair               1
 max number of CS2 of shell pair            196
 max number of PS2 of shell pair           1014
 mem total for path MDJ                  547738
 -------------------------------------------------------
 Smallest overlap matrix eigenvalue = 1.20E-04
 Guess MOs from SCF MO coefficient file
 Reading MOs from coefficient file
 Reading MOs from coefficient file
 A restricted hybrid HF-DFT SCF calculation will be
 performed using Geometric Direct Minimization
 Exchange:     0.5000 Hartree-Fock + 0.5000 PTPSS-D3
 Correlation:  0.6250 PTPSS-D3
 Using Euler-Maclaurin-Lebedev (99,590) quadrature formula
 Dispersion:   Grimme D3
 SCF converges when RMS gradient is below 1.0E-08
Using Q-Chem read-in guess as SCF_GUESS READ specified.

 using 8 threads for integral computing
 -------------------------------------------------------
 OpenMP Integral computing Module                
 Release: version 2.0, May 2017, Q-Chem Inc. Pleasanton 
 -------------------------------------------------------
TIMEINFO->: J/JK contribution 16.22 sec.
 -------------------------------------------------------
 OpenMP BLAS3 based DFT computing Module                
 Release: version 1.0, May 2013, Q-Chem Inc. Pittsburgh 
 -------------------------------------------------------
 ---------------------------------------
  Cycle       Energy        RMS Gradient
 ---------------------------------------
    1    -291.0489827805      7.83E-04 Normal BFGS step
TIMEINFO->: J/JK contribution 17.16 sec.
    2    -291.0489849302      6.47E-04 Normal BFGS step
TIMEINFO->: J/JK contribution 18.20 sec.
    3    -291.0489852876      1.47E-04 Normal BFGS step
TIMEINFO->: J/JK contribution 18.44 sec.
    4    -291.0489852983      4.58E-05 Normal BFGS step
TIMEINFO->: J/JK contribution 18.29 sec.
    5    -291.0489853004      6.64E-06 Normal BFGS step
TIMEINFO->: J/JK contribution 16.95 sec.
    6    -291.0489853005      4.13E-06 Normal BFGS step
TIMEINFO->: J/JK contribution 16.93 sec.
    7    -291.0489853005      6.89E-07 Normal BFGS step
TIMEINFO->: J/JK contribution 16.63 sec.
   GDM::WARNING energy changes are now smaller than effective accuracy.
   GDM::        calculation will continue, but THRESH should be increased
   GDM::        or SCF_CONVERGENCE decreased.
   GDM::        effective_thresh =   9.000000000000000E-011
    8    -291.0489853005      1.84E-07 Normal BFGS step
TIMEINFO->: J/JK contribution 15.94 sec.
    9    -291.0489853005      2.14E-08 Normal BFGS step
TIMEINFO->: J/JK contribution 15.48 sec.
   10    -291.0489853005      6.95E-09 Convergence criterion met
 ---------------------------------------
 SCF time:  CPU 499.40 s  wall 64.08 s
 SCF   energy in the final basis set = -291.04898530
 Total energy in the final basis set = -291.04898530
 
 Components of the MP2 correlation energy:
        aaaa  correlation energy =         0.0000000000 au
        abab  correlation energy =        -0.1414328424 au
        bbbb  correlation energy =         0.0000000000 au
        non-Brillouin singles    =        -0.0008151189 au

 Total  MP2   correlation energy =                    -0.14224796 au
        MP2         total energy =                  -291.19123326 au
 
 --------------------------------------------------------------
 
                    Orbital Energies (a.u.)
 --------------------------------------------------------------
 
 Alpha MOs
 -- Occupied --
-67.202  -5.626  -3.864  -3.864  -3.872  -0.618  -0.417  -0.417
 -0.274
 -- Virtual --
  0.011   0.035   0.038   0.045   0.048   0.049   0.084   0.101
  0.102   0.101   0.102   0.108   0.196   0.210   0.211   0.224
  0.232   0.233   0.258   0.259   0.269   0.304   0.304   0.322
  0.376   0.404   0.405   0.424   0.466   0.479   0.479   0.509
  0.531   0.531   0.556   0.557   0.564   0.574   0.575   0.593
  0.756   0.807   0.807   0.863   0.882   0.882   0.931   0.932
  0.973   0.984   0.984   1.004   1.036   1.036   1.121   1.121
  1.134   1.165   1.165   1.172   1.201   1.231   1.231   1.231
  1.270   1.271   1.346   1.391   1.392   1.444   1.597   1.765
  1.765   1.798   1.807   1.807   1.881   2.007   2.007   2.011
  2.507   2.595   2.595   3.111   3.112   3.123   3.750   3.750
  3.788   3.835   3.853   3.853   3.915   3.915   3.951   4.002
  4.002   4.106   4.129   4.185   4.201   4.202   4.241   4.287
  4.287   4.480   4.480   4.797   4.797   4.902   6.146   6.146
  6.393   6.863   6.863   9.568  10.225  10.448  10.448  22.535
 22.538  22.538  22.544  22.544  22.549  22.554  27.485  27.485
 27.616  27.836  27.836  39.714  39.973  39.973  56.699
 
 Beta MOs
 -- Occupied --
-67.198  -5.620  -3.861  -3.861  -3.856  -0.590  -0.406  -0.405
 -- Virtual --
 -0.043   0.016   0.040   0.042   0.055   0.053   0.053   0.101
  0.106   0.107   0.120   0.122   0.116   0.205   0.212   0.214
  0.242   0.237   0.238   0.270   0.270   0.269   0.317   0.317
  0.332   0.392   0.416   0.416   0.433   0.478   0.494   0.494
  0.518   0.538   0.538   0.568   0.568   0.567   0.580   0.581
  0.616   0.766   0.814   0.814   0.866   0.885   0.885   0.939
  0.939   0.979   0.988   0.988   1.009   1.042   1.042   1.128
  1.129   1.143   1.175   1.175   1.175   1.211   1.234   1.235
  1.235   1.289   1.290   1.355   1.416   1.416   1.461   1.610
  1.774   1.774   1.808   1.819   1.819   1.892   2.014   2.014
  2.027   2.525   2.605   2.606   3.119   3.119   3.131   3.754
  3.754   3.791   3.845   3.857   3.857   3.924   3.924   3.956
  4.012   4.013   4.114   4.141   4.194   4.208   4.208   4.245
  4.297   4.298   4.486   4.486   4.805   4.806   4.913   6.154
  6.154   6.405   6.871   6.871   9.584  10.238  10.456  10.456
 22.538  22.541  22.541  22.546  22.546  22.551  22.556  27.492
 27.492  27.627  27.841  27.841  39.723  39.976  39.976  56.705
 --------------------------------------------------------------
 
          Ground-State Mulliken Net Atomic Charges

     Atom                 Charge (a.u.)
  ----------------------------------------
      1 Si                    0.398645
      2 H                    -0.134174
      3 H                    -0.132236
      4 H                    -0.132236
  ----------------------------------------
  Sum of atomic charges =    -0.000000

 -----------------------------------------------------------------
                    Cartesian Multipole Moments
 -----------------------------------------------------------------
    Charge (ESU x 10^10)
                -0.0000
    Dipole Moment (Debye)
         X      -0.0000      Y      -0.0031      Z       0.0149
       Tot       0.0152
    Quadrupole Moments (Debye-Ang)
        XX     -15.8875     XY       0.0000     YY     -15.9223
        XZ       0.0000     YZ       0.0012     ZZ     -16.3069
    Octopole Moments (Debye-Ang^2)
       XXX      -0.0000    XXY       0.8195    XYY      -0.0000
       YYY      -0.8472    XXZ       0.3425    XYZ      -0.0000
       YYZ       0.3512    XZZ      -0.0000    YZZ      -0.0024
       ZZZ      -1.7517
    Hexadecapole Moments (Debye-Ang^3)
      XXXX     -42.0002   XXXY       0.0000   XXYY     -14.0310
      XYYY       0.0000   YYYY     -42.1960   XXXZ       0.0000
      XXYZ       0.2578   XYYZ       0.0000   YYYZ      -0.2475
      XXZZ     -12.4765   XYZZ      -0.0000   YYZZ     -12.5041
      XZZZ       0.0000   YZZZ       0.0016   ZZZZ     -33.3451
 -----------------------------------------------------------------
Archival summary:
1\1\n0075.mhg0\SP\ROProcedureUnspecified\BasisUnspecified\i13(2)\yhljason\SatOct314:24:172020SatOct314:24:172020\0\\#,ROProcedureUnspecified,BasisUnspecified,\\0,2\Si\H,1,1.46802\H,1,1.46802,2,110.5\H,1,1.46802,2,110.5,3,122.613,0\\\@

 Total job time:  101.48s(wall), 768.95s(cpu) 
 Sat Oct  3 14:24:17 2020

        *************************************************************
        *                                                           *
        *  Thank you very much for using Q-Chem.  Have a nice day.  *
        *                                                           *
        *************************************************************


 
User input: 6 of 8 
 
Q-Chem Developer Version!
                  Welcome to Q-Chem
     A Quantum Leap Into The Future Of Chemistry


 Q-Chem 5.1, Q-Chem, Inc., Pleasanton, CA (2018)

 Yihan Shao,  Zhengting Gan,  E. Epifanovsky,  A. T. B. Gilbert,  M. Wormit,  
 J. Kussmann,  A. W. Lange,  A. Behn,  Jia Deng,  Xintian Feng,  D. Ghosh,  
 M. Goldey,  P. R. Horn,  L. D. Jacobson,  I. Kaliman,  T. Kus,  A. Landau,  
 Jie Liu,  E. I. Proynov,  R. M. Richard,  R. P. Steele,  E. J. Sundstrom,  
 H. L. Woodcock III,  P. M. Zimmerman,  D. Zuev,  B. Albrecht,  E. Alguire,  
 S. A. Baeppler,  D. Barton,  Z. Benda,  Y. A. Bernard,  E. J. Berquist,  
 K. B. Bravaya,  H. Burton,  D. Casanova,  Chun-Min Chang,  Yunqing Chen,  
 A. Chien,  K. D. Closser,  M. P. Coons,  S. Coriani,  S. Dasgupta,  
 A. L. Dempwolff,  M. Diedenhofen,  Hainam Do,  R. G. Edgar,  Po-Tung Fang,  
 S. Faraji,  S. Fatehi,  Qingguo Feng,  K. D. Fenk,  J. Fosso-Tande,  
 Qinghui Ge,  A. Ghysels,  G. Gidofalvi,  J. Gomes,  J. Gonthier,  A. Gunina,  
 D. Hait,  M. W. D. Hanson-Heine,  P. H. P. Harbach,  A. W. Hauser,  
 J. E. Herr,  E. G. Hohenstein,  Z. C. Holden,  Kerwin Hui,  B. C. Huynh,  
 T.-C. Jagau,  Hyunjun Ji,  B. Kaduk,  K. Khistyaev,  Jaehoon Kim,  
 P. Klunzinger,  K. Koh,  D. Kosenkov,  L. Koulias,  T. Kowalczyk,  
 C. M. Krauter,  A. Kunitsa,  Ka Un Lao,  A. Laurent,  K. V. Lawler,  
 Joonho Lee,  D. Lefrancois,  S. Lehtola,  D. S. Levine,  Yi-Pei Li,  
 You-Sheng Lin,  Fenglai Liu,  E. Livshits,  A. Luenser,  P. Manohar,  
 E. Mansoor,  S. F. Manzer,  Shan-Ping Mao,  Yuezhi Mao,  N. Mardirossian,  
 A. V. Marenich,  T. Markovich,  L. A. Martinez-Martinez,  S. A. Maurer,  
 N. J. Mayhall,  S. C. McKenzie,  J.-M. Mewes,  A. F. Morrison,  
 J. W. Mullinax,  K. Nanda,  T. S. Nguyen-Beck,  R. Olivares-Amaya,  
 J. A. Parkhill,  T. M. Perrine,  F. Plasser,  P. Pokhilko,  S. Prager,  
 A. Prociuk,  E. Ramos,  D. R. Rehn,  F. Rob,  M. Schneider,  N. Sergueev,  
 S. M. Sharada,  S. Sharma,  D. W. Small,  T. Stauch,  T. Stein,  
 Yu-Chuan Su,  A. J. W. Thom,  A. Tkatchenko,  T. Tsuchimochi,  N. M. Tubman,  
 L. Vogt,  M. L. Vidal,  O. Vydrov,  M. A. Watson,  J. Wenzel,  
 M. de Wergifosse,  T. A. Wesolowski,  A. White,  J. Witte,  A. Yamada,  
 Jun Yang,  K. Yao,  S. Yeganeh,  S. R. Yost,  Zhi-Qiang You,  A. Zech,  
 Igor Ying Zhang,  Xing Zhang,  Yan Zhao,  Ying Zhu,  B. R. Brooks,  
 G. K. L. Chan,  C. J. Cramer,  M. S. Gordon,  W. J. Hehre,  A. Klamt,  
 M. W. Schmidt,  C. D. Sherrill,  D. G. Truhlar,  A. Aspuru-Guzik,  R. Baer,  
 A. T. Bell,  N. A. Besley,  Jeng-Da Chai,  A. E. DePrince, III,  
 R. A. DiStasio Jr.,  A. Dreuw,  B. D. Dunietz,  T. R. Furlani,  
 Chao-Ping Hsu,  Yousung Jung,  Jing Kong,  D. S. Lambrecht,  WanZhen Liang,  
 C. Ochsenfeld,  V. A. Rassolov,  L. V. Slipchenko,  J. E. Subotnik,  
 T. Van Voorhis,  J. M. Herbert,  A. I. Krylov,  P. M. W. Gill,  M. Head-Gordon

 Contributors to earlier versions of Q-Chem not listed above: 
 R. D. Adamson,  B. Austin,  J. Baker,  G. J. O. Beran,  K. Brandhorst,  
 S. T. Brown,  E. F. C. Byrd,  A. K. Chakraborty,  C.-L. Cheng,  
 Siu Hung Chien,  D. M. Chipman,  D. L. Crittenden,  H. Dachsel,  
 R. J. Doerksen,  A. D. Dutoi,  L. Fusti-Molnar,  W. A. Goddard III,  
 A. Golubeva-Zadorozhnaya,  S. R. Gwaltney,  G. Hawkins,  A. Heyden,  
 S. Hirata,  G. Kedziora,  F. J. Keil,  C. Kelley,  Jihan Kim,  R. A. King,  
 R. Z. Khaliullin,  P. P. Korambath,  W. Kurlancheek,  A. M. Lee,  M. S. Lee,  
 S. V. Levchenko,  Ching Yeh Lin,  D. Liotard,  R. C. Lochan,  I. Lotan,  
 P. E. Maslen,  N. Nair,  D. P. O'Neill,  D. Neuhauser,  E. Neuscamman,  
 C. M. Oana,  R. Olson,  B. Peters,  R. Peverati,  P. A. Pieniazek,  
 Y. M. Rhee,  J. Ritchie,  M. A. Rohrdanz,  E. Rosta,  N. J. Russ,  
 H. F. Schaefer III,  N. E. Schultz,  N. Shenvi,  A. C. Simmonett,  A. Sodt,  
 D. Stuck,  K. S. Thanthiriwatte,  V. Vanovschi,  Tao Wang,  A. Warshel,  
 C. F. Williams,  Q. Wu,  X. Xu,  W. Zhang

 Please cite Q-Chem as follows:
 Y. Shao et al., Mol. Phys. 113, 184-215 (2015)
 DOI: 10.1080/00268976.2014.952696

 Q-Chem 5.1.1 for Intel X86 EM64T Linux

 Parts of Q-Chem use Armadillo 8.300.2 (Tropical Shenanigans).
 http://arma.sourceforge.net/

 Q-Chem begins on Sat Oct  3 14:24:20 2020  

Host: n0075.mhg0
0

     Scratch files written to /local/scratch/users/yhljason/SiH3_PTPSS-D3_aug-cc-pcVTZ.inp20201003135124//
The previous job contains 0 fragments, simply inherited here
Input Ideriv = 0
Curr. Ideriv = -1
Max.  Ideriv = 0
Input Ideriv = 1
Curr. Ideriv = 0
Max.  Ideriv = 0

Checking the input file for inconsistencies... 	...done.

--------------------------------------------------------------
User input:
--------------------------------------------------------------
$molecule
read
$end

$rem

jobtype sp
method PTPSS-D3
xc_grid 000099000590
basis aug-cc-pcVTZ
max_scf_cycles 200
thresh 14
scf_convergence 8
mem_total 128000
cc_memory 96000
cc_backend xm
mem_static 1500
symmetry false
sym_ignore true
scf_guess read
unrestricted false
scf_algorithm gdm
n_frozen_core 0
$end

$multipole_field
YY -0.0001
$end


--------------------------------------------------------------
 Adding empirical dispersion correction 
 ----------------------------------------------------------------
 Doing -D3(0) with
 s6  =   0.75000
 s8  =   0.87900
 rs6 =   1.54100
 rs8 =   1.00000
 -D3 energy without 3body term =     -0.0002432811 hartrees
 ----------------------------------------------------------------
             Standard Nuclear Orientation (Angstroms)
    I     Atom           X                Y                Z
 ----------------------------------------------------------------
    1      Si      0.0000000000     0.0000000000     0.0819000000
    2      H       0.0000000000     1.3928000000    -0.3820000000
    3      H       1.2062000000    -0.6964000000    -0.3820000000
    4      H      -1.2062000000    -0.6964000000    -0.3820000000
 ----------------------------------------------------------------
 Nuclear Repulsion Energy =    15.7975270531 hartrees
 There are        9 alpha and        8 beta electrons
 Requested basis set is aug-cc-pCVTZ
 There are 50 shells and 144 basis functions

 Total QAlloc Memory Limit 128000 MB
 Mega-Array Size      1467 MB
 MEM_STATIC part      1500 MB

                       Distance Matrix (Angstroms)
             Si(  1)   H (  2)   H (  3)
   H (  2)  1.468024
   H (  3)  1.468024  2.412400
   H (  4)  1.468024  2.412400  2.412400
 
 Applying Cartesian multipole field
    Component          Value
    ---------          -----
     (0,2,0)       -1.00000E-04
 Nucleus-field energy     =    -0.0010391219 hartrees
 A cutoff of  1.0D-14 yielded   1275 shell pairs
 There are     10661 function pairs (     13878 Cartesian)
 
 -------------------------------------------------------
 OpenMP Integral Computing Module                       
 Release: version 1.0, May 2013, Q-Chem Inc. Pittsburgh 
 -------------------------------------------------------
 Integral Job Info:
 Integral job number is                      11
 Integral operator is                         1
 short-range coefficients                     0
 long-range coefficients              100000000
 Omega coefficients                           0
 if combine SR and LR in K                    0
 Integral screening is                        0
 Integral computing path is                   2
 max size of driver memory is            800000
 size of driver memory is                776718
 size of scratch memory is             29531563
 max col of scratch BK array              10000
 max len of scratch array in speh3          662
 max len of scratch index in speh4           32
 max int batch size is                      520
 min int batch size is                       52
 fixed nKL is                                31
 max L of basis functions is                  3
 order of int derivative is                   0
 number of shells is                         50
 number of basis is                         164
 number of cartesian basis is               164
 number of contracted shell pairs          1275
 number of primitive shell pairs           5508
 maxK2 (contraction) of shell pair          169
 max number of K2 of shell pair               1
 max number of CS2 of shell pair            196
 max number of PS2 of shell pair           1014
 mem total for path MDJ                  547738
 -------------------------------------------------------
 Smallest overlap matrix eigenvalue = 1.20E-04
 Guess MOs from SCF MO coefficient file
 Reading MOs from coefficient file
 Reading MOs from coefficient file
 A restricted hybrid HF-DFT SCF calculation will be
 performed using Geometric Direct Minimization
 Exchange:     0.5000 Hartree-Fock + 0.5000 PTPSS-D3
 Correlation:  0.6250 PTPSS-D3
 Using Euler-Maclaurin-Lebedev (99,590) quadrature formula
 Dispersion:   Grimme D3
 SCF converges when RMS gradient is below 1.0E-08
Using Q-Chem read-in guess as SCF_GUESS READ specified.

 using 8 threads for integral computing
 -------------------------------------------------------
 OpenMP Integral computing Module                
 Release: version 2.0, May 2017, Q-Chem Inc. Pleasanton 
 -------------------------------------------------------
TIMEINFO->: J/JK contribution 17.67 sec.
 -------------------------------------------------------
 OpenMP BLAS3 based DFT computing Module                
 Release: version 1.0, May 2013, Q-Chem Inc. Pittsburgh 
 -------------------------------------------------------
 ---------------------------------------
  Cycle       Energy        RMS Gradient
 ---------------------------------------
    1    -291.0466177365      1.13E-03 Normal BFGS step
TIMEINFO->: J/JK contribution 16.62 sec.
    2    -291.0466223895      6.38E-04 Normal BFGS step
TIMEINFO->: J/JK contribution 16.73 sec.
    3    -291.0466228183      2.40E-04 Normal BFGS step
TIMEINFO->: J/JK contribution 16.33 sec.
    4    -291.0466228502      5.02E-05 Normal BFGS step
TIMEINFO->: J/JK contribution 16.18 sec.
    5    -291.0466228526      1.06E-05 Normal BFGS step
TIMEINFO->: J/JK contribution 16.64 sec.
    6    -291.0466228528      3.57E-06 Normal BFGS step
TIMEINFO->: J/JK contribution 15.81 sec.
    7    -291.0466228528      1.27E-06 Normal BFGS step
TIMEINFO->: J/JK contribution 15.79 sec.
    8    -291.0466228528      3.12E-07 Normal BFGS step
TIMEINFO->: J/JK contribution 15.83 sec.
    9    -291.0466228528      5.39E-08 Normal BFGS step
TIMEINFO->: J/JK contribution 15.84 sec.
   10    -291.0466228528      1.35E-08 Normal BFGS step
TIMEINFO->: J/JK contribution 17.04 sec.
   GDM::WARNING energy changes are now smaller than effective accuracy.
   GDM::        calculation will continue, but THRESH should be increased
   GDM::        or SCF_CONVERGENCE decreased.
   GDM::        effective_thresh =   9.000000000000000E-011
   11    -291.0466228528      1.99E-09 Convergence criterion met
 ---------------------------------------
 SCF time:  CPU 519.66 s  wall 65.64 s
 SCF   energy in the final basis set = -291.04662285
 Total energy in the final basis set = -291.04662285
 
 Components of the MP2 correlation energy:
        aaaa  correlation energy =         0.0000000000 au
        abab  correlation energy =        -0.1414394961 au
        bbbb  correlation energy =         0.0000000000 au
        non-Brillouin singles    =        -0.0008159977 au

 Total  MP2   correlation energy =                    -0.14225549 au
        MP2         total energy =                  -291.18887835 au
 
 --------------------------------------------------------------
 
                    Orbital Energies (a.u.)
 --------------------------------------------------------------
 
 Alpha MOs
 -- Occupied --
-67.201  -5.625  -3.863  -3.863  -3.871  -0.617  -0.416  -0.415
 -0.273
 -- Virtual --
  0.016   0.040   0.042   0.048   0.053   0.055   0.086   0.104
  0.104   0.105   0.106   0.113   0.199   0.214   0.216   0.227
  0.235   0.236   0.260   0.261   0.272   0.306   0.307   0.324
  0.377   0.406   0.407   0.427   0.469   0.481   0.481   0.510
  0.533   0.533   0.558   0.559   0.566   0.576   0.577   0.595
  0.757   0.808   0.808   0.864   0.883   0.883   0.933   0.933
  0.974   0.986   0.986   1.006   1.037   1.037   1.122   1.123
  1.135   1.166   1.166   1.173   1.202   1.232   1.232   1.233
  1.272   1.272   1.348   1.393   1.393   1.446   1.599   1.767
  1.767   1.799   1.808   1.808   1.882   2.009   2.009   2.012
  2.508   2.596   2.596   3.113   3.113   3.125   3.751   3.751
  3.789   3.836   3.854   3.855   3.916   3.916   3.952   4.003
  4.003   4.107   4.130   4.186   4.203   4.203   4.242   4.288
  4.288   4.481   4.481   4.798   4.798   4.903   6.147   6.147
  6.394   6.864   6.864   9.569  10.226  10.449  10.449  22.536
 22.539  22.539  22.545  22.545  22.550  22.555  27.486  27.486
 27.617  27.837  27.837  39.715  39.974  39.974  56.700
 
 Beta MOs
 -- Occupied --
[...]
  0.615   0.766   0.814   0.814   0.866   0.885   0.885   0.939
  0.939   0.979   0.988   0.988   1.010   1.043   1.043   1.129
  1.129   1.143   1.175   1.175   1.175   1.211   1.235   1.235
  1.235   1.290   1.290   1.355   1.416   1.416   1.461   1.610
  1.774   1.774   1.808   1.819   1.819   1.893   2.015   2.015
  2.027   2.525   2.606   2.606   3.119   3.119   3.131   3.754
  3.754   3.791   3.845   3.857   3.857   3.924   3.924   3.956
  4.013   4.013   4.115   4.141   4.194   4.208   4.208   4.245
  4.298   4.298   4.486   4.486   4.806   4.806   4.913   6.154
  6.154   6.405   6.872   6.872   9.584  10.238  10.456  10.456
 22.538  22.541  22.541  22.546  22.546  22.551  22.556  27.492
 27.492  27.627  27.841  27.841  39.723  39.976  39.976  56.705
 --------------------------------------------------------------
 
          Ground-State Mulliken Net Atomic Charges

     Atom                 Charge (a.u.)
  ----------------------------------------
      1 Si                    0.392702
      2 H                    -0.130892
      3 H                    -0.130905
      4 H                    -0.130905
  ----------------------------------------
  Sum of atomic charges =    -0.000000

 -----------------------------------------------------------------
                    Cartesian Multipole Moments
 -----------------------------------------------------------------
    Charge (ESU x 10^10)
                -0.0000
    Dipole Moment (Debye)
         X       0.0000      Y      -0.0000      Z       0.0107
       Tot       0.0107
    Quadrupole Moments (Debye-Ang)
        XX     -15.8899     XY      -0.0000     YY     -15.8899
        XZ      -0.0000     YZ      -0.0000     ZZ     -16.3363
    Octopole Moments (Debye-Ang^2)
       XXX       0.0000    XXY       0.8134    XYY       0.0000
       YYY      -0.8134    XXZ       0.3391    XYZ       0.0000
       YYZ       0.3391    XZZ      -0.0000    YZZ      -0.0000
       ZZZ      -1.7880
    Hexadecapole Moments (Debye-Ang^3)
      XXXX     -42.0163   XXXY      -0.0000   XXYY     -14.0054
      XYYY      -0.0000   YYYY     -42.0163   XXXZ      -0.0000
      XXYZ       0.2582   XYYZ      -0.0000   YYYZ      -0.2582
      XXZZ     -12.5117   XYZZ      -0.0000   YYZZ     -12.5117
      XZZZ      -0.0000   YZZZ       0.0000   ZZZZ     -33.5426
 -----------------------------------------------------------------
Archival summary:
1\1\n0075.mhg0\SP\ROProcedureUnspecified\BasisUnspecified\i13(2)\yhljason\SatOct314:27:462020SatOct314:27:462020\0\\#,ROProcedureUnspecified,BasisUnspecified,\\0,2\Si\H,1,1.46802\H,1,1.46802,2,110.5\H,1,1.46802,2,110.5,3,122.613,0\\\@

 Total job time:  101.87s(wall), 754.54s(cpu) 
 Sat Oct  3 14:27:46 2020

        *************************************************************
        *                                                           *
        *  Thank you very much for using Q-Chem.  Have a nice day.  *
        *                                                           *
        *************************************************************


 
User input: 8 of 8 
 
Q-Chem Developer Version!
                  Welcome to Q-Chem
     A Quantum Leap Into The Future Of Chemistry


 Q-Chem 5.1, Q-Chem, Inc., Pleasanton, CA (2018)

 Yihan Shao,  Zhengting Gan,  E. Epifanovsky,  A. T. B. Gilbert,  M. Wormit,  
 J. Kussmann,  A. W. Lange,  A. Behn,  Jia Deng,  Xintian Feng,  D. Ghosh,  
 M. Goldey,  P. R. Horn,  L. D. Jacobson,  I. Kaliman,  T. Kus,  A. Landau,  
 Jie Liu,  E. I. Proynov,  R. M. Richard,  R. P. Steele,  E. J. Sundstrom,  
 H. L. Woodcock III,  P. M. Zimmerman,  D. Zuev,  B. Albrecht,  E. Alguire,  
 S. A. Baeppler,  D. Barton,  Z. Benda,  Y. A. Bernard,  E. J. Berquist,  
 K. B. Bravaya,  H. Burton,  D. Casanova,  Chun-Min Chang,  Yunqing Chen,  
 A. Chien,  K. D. Closser,  M. P. Coons,  S. Coriani,  S. Dasgupta,  
 A. L. Dempwolff,  M. Diedenhofen,  Hainam Do,  R. G. Edgar,  Po-Tung Fang,  
 S. Faraji,  S. Fatehi,  Qingguo Feng,  K. D. Fenk,  J. Fosso-Tande,  
 Qinghui Ge,  A. Ghysels,  G. Gidofalvi,  J. Gomes,  J. Gonthier,  A. Gunina,  
 D. Hait,  M. W. D. Hanson-Heine,  P. H. P. Harbach,  A. W. Hauser,  
 J. E. Herr,  E. G. Hohenstein,  Z. C. Holden,  Kerwin Hui,  B. C. Huynh,  
 T.-C. Jagau,  Hyunjun Ji,  B. Kaduk,  K. Khistyaev,  Jaehoon Kim,  
 P. Klunzinger,  K. Koh,  D. Kosenkov,  L. Koulias,  T. Kowalczyk,  
 C. M. Krauter,  A. Kunitsa,  Ka Un Lao,  A. Laurent,  K. V. Lawler,  
 Joonho Lee,  D. Lefrancois,  S. Lehtola,  D. S. Levine,  Yi-Pei Li,  
 You-Sheng Lin,  Fenglai Liu,  E. Livshits,  A. Luenser,  P. Manohar,  
 E. Mansoor,  S. F. Manzer,  Shan-Ping Mao,  Yuezhi Mao,  N. Mardirossian,  
 A. V. Marenich,  T. Markovich,  L. A. Martinez-Martinez,  S. A. Maurer,  
 N. J. Mayhall,  S. C. McKenzie,  J.-M. Mewes,  A. F. Morrison,  
 J. W. Mullinax,  K. Nanda,  T. S. Nguyen-Beck,  R. Olivares-Amaya,  
 J. A. Parkhill,  T. M. Perrine,  F. Plasser,  P. Pokhilko,  S. Prager,  
 A. Prociuk,  E. Ramos,  D. R. Rehn,  F. Rob,  M. Schneider,  N. Sergueev,  
 S. M. Sharada,  S. Sharma,  D. W. Small,  T. Stauch,  T. Stein,  
 Yu-Chuan Su,  A. J. W. Thom,  A. Tkatchenko,  T. Tsuchimochi,  N. M. Tubman,  
 L. Vogt,  M. L. Vidal,  O. Vydrov,  M. A. Watson,  J. Wenzel,  
 M. de Wergifosse,  T. A. Wesolowski,  A. White,  J. Witte,  A. Yamada,  
 Jun Yang,  K. Yao,  S. Yeganeh,  S. R. Yost,  Zhi-Qiang You,  A. Zech,  
 Igor Ying Zhang,  Xing Zhang,  Yan Zhao,  Ying Zhu,  B. R. Brooks,  
 G. K. L. Chan,  C. J. Cramer,  M. S. Gordon,  W. J. Hehre,  A. Klamt,  
 M. W. Schmidt,  C. D. Sherrill,  D. G. Truhlar,  A. Aspuru-Guzik,  R. Baer,  
 A. T. Bell,  N. A. Besley,  Jeng-Da Chai,  A. E. DePrince, III,  
 R. A. DiStasio Jr.,  A. Dreuw,  B. D. Dunietz,  T. R. Furlani,  
 Chao-Ping Hsu,  Yousung Jung,  Jing Kong,  D. S. Lambrecht,  WanZhen Liang,  
 C. Ochsenfeld,  V. A. Rassolov,  L. V. Slipchenko,  J. E. Subotnik,  
 T. Van Voorhis,  J. M. Herbert,  A. I. Krylov,  P. M. W. Gill,  M. Head-Gordon

 Contributors to earlier versions of Q-Chem not listed above: 
 R. D. Adamson,  B. Austin,  J. Baker,  G. J. O. Beran,  K. Brandhorst,  
 S. T. Brown,  E. F. C. Byrd,  A. K. Chakraborty,  C.-L. Cheng,  
 Siu Hung Chien,  D. M. Chipman,  D. L. Crittenden,  H. Dachsel,  
 R. J. Doerksen,  A. D. Dutoi,  L. Fusti-Molnar,  W. A. Goddard III,  
 A. Golubeva-Zadorozhnaya,  S. R. Gwaltney,  G. Hawkins,  A. Heyden,  
 S. Hirata,  G. Kedziora,  F. J. Keil,  C. Kelley,  Jihan Kim,  R. A. King,  
 R. Z. Khaliullin,  P. P. Korambath,  W. Kurlancheek,  A. M. Lee,  M. S. Lee,  
 S. V. Levchenko,  Ching Yeh Lin,  D. Liotard,  R. C. Lochan,  I. Lotan,  
 P. E. Maslen,  N. Nair,  D. P. O'Neill,  D. Neuhauser,  E. Neuscamman,  
 C. M. Oana,  R. Olson,  B. Peters,  R. Peverati,  P. A. Pieniazek,  
 Y. M. Rhee,  J. Ritchie,  M. A. Rohrdanz,  E. Rosta,  N. J. Russ,  
 H. F. Schaefer III,  N. E. Schultz,  N. Shenvi,  A. C. Simmonett,  A. Sodt,  
 D. Stuck,  K. S. Thanthiriwatte,  V. Vanovschi,  Tao Wang,  A. Warshel,  
 C. F. Williams,  Q. Wu,  X. Xu,  W. Zhang

 Please cite Q-Chem as follows:
 Y. Shao et al., Mol. Phys. 113, 184-215 (2015)
 DOI: 10.1080/00268976.2014.952696

 Q-Chem 5.1.1 for Intel X86 EM64T Linux

 Parts of Q-Chem use Armadillo 8.300.2 (Tropical Shenanigans).
 http://arma.sourceforge.net/

 Q-Chem begins on Sat Oct  3 14:27:46 2020  

Host: n0075.mhg0
0

     Scratch files written to /local/scratch/users/yhljason/SiH3_PTPSS-D3_aug-cc-pcVTZ.inp20201003135124//
The previous job contains 0 fragments, simply inherited here
Input Ideriv = 0
Curr. Ideriv = -1
Max.  Ideriv = 0
Input Ideriv = 1
Curr. Ideriv = 0
Max.  Ideriv = 0

Checking the input file for inconsistencies... 	...done.

--------------------------------------------------------------
User input:
--------------------------------------------------------------
$molecule
read
$end

$rem

jobtype sp
method PTPSS-D3
xc_grid 000099000590
basis aug-cc-pcVTZ
max_scf_cycles 200
thresh 14
scf_convergence 8
mem_total 128000
cc_memory 96000
cc_backend xm
mem_static 1500
symmetry false
sym_ignore true
scf_guess read
unrestricted false
scf_algorithm gdm
n_frozen_core 0
$end

$multipole_field
ZZ -0.0001
$end

--------------------------------------------------------------
 Adding empirical dispersion correction 
 ----------------------------------------------------------------
 Doing -D3(0) with
 s6  =   0.75000
 s8  =   0.87900
 rs6 =   1.54100
 rs8 =   1.00000
 -D3 energy without 3body term =     -0.0002432811 hartrees
 ----------------------------------------------------------------
             Standard Nuclear Orientation (Angstroms)
    I     Atom           X                Y                Z
 ----------------------------------------------------------------
    1      Si      0.0000000000     0.0000000000     0.0819000000
    2      H       0.0000000000     1.3928000000    -0.3820000000
    3      H       1.2062000000    -0.6964000000    -0.3820000000
    4      H      -1.2062000000    -0.6964000000    -0.3820000000
 ----------------------------------------------------------------
 Nuclear Repulsion Energy =    15.7975270531 hartrees
 There are        9 alpha and        8 beta electrons
 Requested basis set is aug-cc-pCVTZ
 There are 50 shells and 144 basis functions

 Total QAlloc Memory Limit 128000 MB
 Mega-Array Size      1467 MB
 MEM_STATIC part      1500 MB

                       Distance Matrix (Angstroms)
             Si(  1)   H (  2)   H (  3)
   H (  2)  1.468024
   H (  3)  1.468024  2.412400
   H (  4)  1.468024  2.412400  2.412400
 
 Applying Cartesian multipole field
    Component          Value
    ---------          -----
     (0,0,2)       -1.00000E-04
 Nucleus-field energy     =    -0.0001898659 hartrees
 A cutoff of  1.0D-14 yielded   1275 shell pairs
 There are     10661 function pairs (     13878 Cartesian)
 
 -------------------------------------------------------
 OpenMP Integral Computing Module                       
 Release: version 1.0, May 2013, Q-Chem Inc. Pittsburgh 
 -------------------------------------------------------
 Integral Job Info:
 Integral job number is                      11
 Integral operator is                         1
 short-range coefficients                     0
 long-range coefficients              100000000
 Omega coefficients                           0
 if combine SR and LR in K                    0
 Integral screening is                        0
 Integral computing path is                   2
 max size of driver memory is            800000
 size of driver memory is                776718
 size of scratch memory is             29531563
 max col of scratch BK array              10000
 max len of scratch array in speh3          662
 max len of scratch index in speh4           32
 max int batch size is                      520
 min int batch size is                       52
 fixed nKL is                                31
 max L of basis functions is                  3
 order of int derivative is                   0
 number of shells is                         50
 number of basis is                         164
 number of cartesian basis is               164
 number of contracted shell pairs          1275
 number of primitive shell pairs           5508
 maxK2 (contraction) of shell pair          169
 max number of K2 of shell pair               1
 max number of CS2 of shell pair            196
 max number of PS2 of shell pair           1014
 mem total for path MDJ                  547738
 -------------------------------------------------------
 Smallest overlap matrix eigenvalue = 1.20E-04
 Guess MOs from SCF MO coefficient file
 Reading MOs from coefficient file
 Reading MOs from coefficient file
 A restricted hybrid HF-DFT SCF calculation will be
 performed using Geometric Direct Minimization
 Exchange:     0.5000 Hartree-Fock + 0.5000 PTPSS-D3
 Correlation:  0.6250 PTPSS-D3
 Using Euler-Maclaurin-Lebedev (99,590) quadrature formula
 Dispersion:   Grimme D3
 SCF converges when RMS gradient is below 1.0E-08
Using Q-Chem read-in guess as SCF_GUESS READ specified.

 using 8 threads for integral computing
 -------------------------------------------------------
 OpenMP Integral computing Module                
 Release: version 2.0, May 2017, Q-Chem Inc. Pleasanton 
 -------------------------------------------------------
TIMEINFO->: J/JK contribution 18.74 sec.
 -------------------------------------------------------
 OpenMP BLAS3 based DFT computing Module                
 Release: version 1.0, May 2013, Q-Chem Inc. Pittsburgh 
 -------------------------------------------------------
 ---------------------------------------
  Cycle       Energy        RMS Gradient
 ---------------------------------------
    1    -291.0465870619      2.09E-03 Normal BFGS step
TIMEINFO->: J/JK contribution 17.93 sec.
    2    -291.0465910002      1.24E-03 Normal BFGS step
TIMEINFO->: J/JK contribution 18.22 sec.
    3    -291.0465917014      1.63E-04 Normal BFGS step
TIMEINFO->: J/JK contribution 17.79 sec.
    4    -291.0465917284      4.94E-05 Normal BFGS step
TIMEINFO->: J/JK contribution 16.97 sec.
    5    -291.0465917306      9.05E-06 Normal BFGS step
TIMEINFO->: J/JK contribution 17.29 sec.
    6    -291.0465917307      1.85E-06 Normal BFGS step
TIMEINFO->: J/JK contribution 16.33 sec.
    7    -291.0465917307      2.53E-07 Normal BFGS step
TIMEINFO->: J/JK contribution 15.95 sec.
   GDM::WARNING energy changes are now smaller than effective accuracy.
   GDM::        calculation will continue, but THRESH should be increased
   GDM::        or SCF_CONVERGENCE decreased.
   GDM::        effective_thresh =   9.000000000000000E-011
    8    -291.0465917307      7.04E-08 Normal BFGS step
TIMEINFO->: J/JK contribution 15.69 sec.
    9    -291.0465917307      4.09E-08 Normal BFGS step
TIMEINFO->: J/JK contribution 15.47 sec.
   GDM::WARNING energy changes are now smaller than effective accuracy.
   GDM::        calculation will continue, but THRESH should be increased
   GDM::        or SCF_CONVERGENCE decreased.
   GDM::        effective_thresh =   9.000000000000000E-011
   10    -291.0465917307      1.63E-08 Normal BFGS step
TIMEINFO->: J/JK contribution 15.13 sec.
   GDM::WARNING energy changes are now smaller than effective accuracy.
   GDM::        calculation will continue, but THRESH should be increased
   GDM::        or SCF_CONVERGENCE decreased.
   GDM::        effective_thresh =   9.000000000000000E-011
   11    -291.0465917307      7.41E-10 Convergence criterion met
 ---------------------------------------
 SCF time:  CPU 535.46 s  wall 67.58 s
 SCF   energy in the final basis set = -291.04659173
 Total energy in the final basis set = -291.04659173
 
 Components of the MP2 correlation energy:
        aaaa  correlation energy =         0.0000000000 au
        abab  correlation energy =        -0.1414366920 au
        bbbb  correlation energy =         0.0000000000 au
        non-Brillouin singles    =        -0.0008160715 au

 Total  MP2   correlation energy =                    -0.14225276 au
        MP2         total energy =                  -291.18884449 au
 
 --------------------------------------------------------------
 
                    Orbital Energies (a.u.)
 --------------------------------------------------------------
 
 Alpha MOs
 -- Occupied --
-67.201  -5.625  -3.863  -3.863  -3.871  -0.618  -0.416  -0.416
 -0.273
 -- Virtual --
  0.016   0.040   0.040   0.051   0.052   0.052   0.087   0.104
  0.104   0.105   0.105   0.112   0.199   0.214   0.214   0.227
  0.235   0.235   0.261   0.261   0.271   0.306   0.306   0.325
  0.378   0.406   0.406   0.427   0.468   0.481   0.481   0.511
  0.533   0.533   0.558   0.558   0.566   0.576   0.576   0.595
  0.757   0.808   0.808   0.864   0.883   0.883   0.933   0.933
  0.974   0.985   0.985   1.006   1.037   1.037   1.122   1.122
  1.135   1.166   1.166   1.173   1.202   1.232   1.232   1.232
  1.272   1.272   1.347   1.393   1.393   1.445   1.599   1.766
  1.766   1.799   1.808   1.808   1.882   2.008   2.008   2.012
  2.508   2.596   2.596   3.112   3.112   3.124   3.751   3.751
  3.789   3.836   3.854   3.854   3.915   3.915   3.952   4.003
  4.003   4.107   4.130   4.186   4.202   4.202   4.241   4.288
  4.288   4.481   4.481   4.798   4.798   4.903   6.147   6.147
  6.394   6.864   6.864   9.569  10.226  10.448  10.448  22.536
 22.538  22.538  22.545  22.545  22.550  22.555  27.486  27.486
 27.617  27.837  27.837  39.715  39.974  39.974  56.700
 
 Beta MOs
 -- Occupied --
-67.197  -5.619  -3.860  -3.860  -3.855  -0.589  -0.405  -0.405
 -- Virtual --
 -0.042   0.020   0.045   0.045   0.061   0.057   0.057   0.104
  0.109   0.109   0.125   0.125   0.119   0.207   0.216   0.216
  0.245   0.240   0.240   0.273   0.273   0.271   0.319   0.319
  0.335   0.394   0.417   0.417   0.435   0.480   0.496   0.496
  0.520   0.540   0.540   0.570   0.570   0.569   0.583   0.583
  0.618   0.768   0.816   0.816   0.867   0.886   0.886   0.940
  0.940   0.980   0.989   0.989   1.011   1.044   1.044   1.130
  1.130   1.145   1.177   1.177   1.176   1.212   1.235   1.236
  1.236   1.291   1.291   1.356   1.417   1.417   1.463   1.612
  1.775   1.775   1.809   1.820   1.820   1.893   2.015   2.015
  2.028   2.526   2.606   2.606   3.120   3.120   3.132   3.755
  3.755   3.791   3.846   3.858   3.858   3.925   3.925   3.957
  4.013   4.013   4.115   4.142   4.195   4.209   4.209   4.246
  4.298   4.298   4.487   4.487   4.806   4.806   4.914   6.155
  6.155   6.406   6.872   6.872   9.585  10.239  10.457  10.457
 22.539  22.542  22.542  22.547  22.547  22.552  22.557  27.493
 27.493  27.628  27.842  27.842  39.724  39.977  39.977  56.706
 --------------------------------------------------------------
 
          Ground-State Mulliken Net Atomic Charges

     Atom                 Charge (a.u.)
  ----------------------------------------
      1 Si                    0.402256
      2 H                    -0.134077
      3 H                    -0.134090
      4 H                    -0.134090
  ----------------------------------------
  Sum of atomic charges =    -0.000000

 -----------------------------------------------------------------
                    Cartesian Multipole Moments
 -----------------------------------------------------------------
    Charge (ESU x 10^10)
                -0.0000
    Dipole Moment (Debye)
         X       0.0000      Y      -0.0000      Z       0.0167
       Tot       0.0167
    Quadrupole Moments (Debye-Ang)
        XX     -15.8858     XY       0.0000     YY     -15.8858
        XZ       0.0000     YZ      -0.0000     ZZ     -16.2739
    Octopole Moments (Debye-Ang^2)
       XXX       0.0000    XXY       0.8181    XYY       0.0000
       YYY      -0.8181    XXZ       0.3451    XYZ      -0.0000
       YYZ       0.3451    XZZ      -0.0000    YZZ      -0.0000
       ZZZ      -1.7219
    Hexadecapole Moments (Debye-Ang^3)
      XXXX     -41.9790   XXXY      -0.0000   XXYY     -13.9930
      XYYY      -0.0000   YYYY     -41.9790   XXXZ      -0.0000
      XXYZ       0.2603   XYYZ      -0.0000   YYYZ      -0.2603
      XXZZ     -12.4338   XYZZ       0.0000   YYZZ     -12.4338
      XZZZ      -0.0000   YZZZ       0.0000   ZZZZ     -33.1118
 -----------------------------------------------------------------
Archival summary:
1\1\n0075.mhg0\SP\ROProcedureUnspecified\BasisUnspecified\i13(2)\yhljason\SatOct314:29:292020SatOct314:29:292020\0\\#,ROProcedureUnspecified,BasisUnspecified,\\0,2\Si\H,1,1.46802\H,1,1.46802,2,110.5\H,1,1.46802,2,110.5,3,122.613,0\\\@

 Total job time:  102.46s(wall), 807.59s(cpu) 
 Sat Oct  3 14:29:29 2020

        *************************************************************
        *                                                           *
        *  Thank you very much for using Q-Chem.  Have a nice day.  *
        *                                                           *
        *************************************************************


