Q-Chem Developer Version!
                  Welcome to Q-Chem
     A Quantum Leap Into The Future Of Chemistry


 Q-Chem 5.1, Q-Chem, Inc., Pleasanton, CA (2018)

 Yihan Shao,  Zhengting Gan,  E. Epifanovsky,  A. T. B. Gilbert,  M. Wormit,  
 J. Kussmann,  A. W. Lange,  A. Behn,  Jia Deng,  Xintian Feng,  D. Ghosh,  
 M. Goldey,  P. R. Horn,  L. D. Jacobson,  I. Kaliman,  T. Kus,  A. Landau,  
 Jie Liu,  E. I. Proynov,  R. M. Richard,  R. P. Steele,  E. J. Sundstrom,  
 H. L. Woodcock III,  P. M. Zimmerman,  D. Zuev,  B. Albrecht,  E. Alguire,  
 S. A. Baeppler,  D. Barton,  Z. Benda,  Y. A. Bernard,  E. J. Berquist,  
 K. B. Bravaya,  H. Burton,  D. Casanova,  Chun-Min Chang,  Yunqing Chen,  
 A. Chien,  K. D. Closser,  M. P. Coons,  S. Coriani,  S. Dasgupta,  
 A. L. Dempwolff,  M. Diedenhofen,  Hainam Do,  R. G. Edgar,  Po-Tung Fang,  
 S. Faraji,  S. Fatehi,  Qingguo Feng,  K. D. Fenk,  J. Fosso-Tande,  
 Qinghui Ge,  A. Ghysels,  G. Gidofalvi,  J. Gomes,  J. Gonthier,  A. Gunina,  
 D. Hait,  M. W. D. Hanson-Heine,  P. H. P. Harbach,  A. W. Hauser,  
 J. E. Herr,  E. G. Hohenstein,  Z. C. Holden,  Kerwin Hui,  B. C. Huynh,  
 T.-C. Jagau,  Hyunjun Ji,  B. Kaduk,  K. Khistyaev,  Jaehoon Kim,  
 P. Klunzinger,  K. Koh,  D. Kosenkov,  L. Koulias,  T. Kowalczyk,  
 C. M. Krauter,  A. Kunitsa,  Ka Un Lao,  A. Laurent,  K. V. Lawler,  
 Joonho Lee,  D. Lefrancois,  S. Lehtola,  D. S. Levine,  Yi-Pei Li,  
 You-Sheng Lin,  Fenglai Liu,  E. Livshits,  A. Luenser,  P. Manohar,  
 E. Mansoor,  S. F. Manzer,  Shan-Ping Mao,  Yuezhi Mao,  N. Mardirossian,  
 A. V. Marenich,  T. Markovich,  L. A. Martinez-Martinez,  S. A. Maurer,  
 N. J. Mayhall,  S. C. McKenzie,  J.-M. Mewes,  A. F. Morrison,  
 J. W. Mullinax,  K. Nanda,  T. S. Nguyen-Beck,  R. Olivares-Amaya,  
 J. A. Parkhill,  T. M. Perrine,  F. Plasser,  P. Pokhilko,  S. Prager,  
 A. Prociuk,  E. Ramos,  D. R. Rehn,  F. Rob,  M. Schneider,  N. Sergueev,  
 S. M. Sharada,  S. Sharma,  D. W. Small,  T. Stauch,  T. Stein,  
 Yu-Chuan Su,  A. J. W. Thom,  A. Tkatchenko,  T. Tsuchimochi,  N. M. Tubman,  
 L. Vogt,  M. L. Vidal,  O. Vydrov,  M. A. Watson,  J. Wenzel,  
 M. de Wergifosse,  T. A. Wesolowski,  A. White,  J. Witte,  A. Yamada,  
 Jun Yang,  K. Yao,  S. Yeganeh,  S. R. Yost,  Zhi-Qiang You,  A. Zech,  
 Igor Ying Zhang,  Xing Zhang,  Yan Zhao,  Ying Zhu,  B. R. Brooks,  
 G. K. L. Chan,  C. J. Cramer,  M. S. Gordon,  W. J. Hehre,  A. Klamt,  
 M. W. Schmidt,  C. D. Sherrill,  D. G. Truhlar,  A. Aspuru-Guzik,  R. Baer,  
 A. T. Bell,  N. A. Besley,  Jeng-Da Chai,  A. E. DePrince, III,  
 R. A. DiStasio Jr.,  A. Dreuw,  B. D. Dunietz,  T. R. Furlani,  
 Chao-Ping Hsu,  Yousung Jung,  Jing Kong,  D. S. Lambrecht,  WanZhen Liang,  
 C. Ochsenfeld,  V. A. Rassolov,  L. V. Slipchenko,  J. E. Subotnik,  
 T. Van Voorhis,  J. M. Herbert,  A. I. Krylov,  P. M. W. Gill,  M. Head-Gordon

 Contributors to earlier versions of Q-Chem not listed above: 
 R. D. Adamson,  B. Austin,  J. Baker,  G. J. O. Beran,  K. Brandhorst,  
 S. T. Brown,  E. F. C. Byrd,  A. K. Chakraborty,  C.-L. Cheng,  
 Siu Hung Chien,  D. M. Chipman,  D. L. Crittenden,  H. Dachsel,  
 R. J. Doerksen,  A. D. Dutoi,  L. Fusti-Molnar,  W. A. Goddard III,  
 A. Golubeva-Zadorozhnaya,  S. R. Gwaltney,  G. Hawkins,  A. Heyden,  
 S. Hirata,  G. Kedziora,  F. J. Keil,  C. Kelley,  Jihan Kim,  R. A. King,  
 R. Z. Khaliullin,  P. P. Korambath,  W. Kurlancheek,  A. M. Lee,  M. S. Lee,  
 S. V. Levchenko,  Ching Yeh Lin,  D. Liotard,  R. C. Lochan,  I. Lotan,  
 P. E. Maslen,  N. Nair,  D. P. O'Neill,  D. Neuhauser,  E. Neuscamman,  
 C. M. Oana,  R. Olson,  B. Peters,  R. Peverati,  P. A. Pieniazek,  
 Y. M. Rhee,  J. Ritchie,  M. A. Rohrdanz,  E. Rosta,  N. J. Russ,  
 H. F. Schaefer III,  N. E. Schultz,  N. Shenvi,  A. C. Simmonett,  A. Sodt,  
 D. Stuck,  K. S. Thanthiriwatte,  V. Vanovschi,  Tao Wang,  A. Warshel,  
 C. F. Williams,  Q. Wu,  X. Xu,  W. Zhang

 Please cite Q-Chem as follows:
 Y. Shao et al., Mol. Phys. 113, 184-215 (2015)
 DOI: 10.1080/00268976.2014.952696

 Q-Chem 5.1.1 for Intel X86 EM64T Linux

 Parts of Q-Chem use Armadillo 8.300.2 (Tropical Shenanigans).
 http://arma.sourceforge.net/

 Q-Chem begins on Wed Oct 21 03:28:27 2020  

Host: n0034.mhg0
0

     Scratch files written to /local/scratch/users/yhljason/AlF_XYGJOS_aug-cc-pcVTZ.inp20201021032825//
Input Ideriv = 2
Curr. Ideriv = -1
Max.  Ideriv = 2

Checking the input file for inconsistencies... 	...done.

--------------------------------------------------------------
User input:
--------------------------------------------------------------
$molecule
0 1
Al1	0.0000	0.0000	0.0000
F2	0.0000	0.0000	1.6544
$end

$rem
jobtype sp
exchange XYGJOS
xc_grid 000099000590
basis aug-cc-pcVTZ
aux_basis rimp2-aug-cc-pVTZ
max_scf_cycles 200
thresh 14
scf_convergence 8
scf_algorithm gdm
symmetry false
sym_ignore true
unrestricted false
gen_scfman false
internal_stability_iter 15
internal_stability_davidson_iter 200
mem_total 128000
cc_memory 96000
cc_backend xm
mem_static 1500
n_frozen_core 0
$end



--------------------------------------------------------------
 ----------------------------------------------------------------
             Standard Nuclear Orientation (Angstroms)
    I     Atom           X                Y                Z
 ----------------------------------------------------------------
    1      Al      0.0000000000     0.0000000000     0.0000000000
    2      F       0.0000000000     0.0000000000     1.6544000000
 ----------------------------------------------------------------
 Nuclear Repulsion Energy =    37.4236784717 hartrees
 There are       11 alpha and       11 beta electrons
 Requested basis set is aug-cc-pCVTZ
 There are 42 shells and 134 basis functions

 Total QAlloc Memory Limit 128000 MB
 Mega-Array Size      1467 MB
 MEM_STATIC part      1500 MB

                       Distance Matrix (Angstroms)
             Al(  1)
   F (  2)  1.654400
 
 Requested basis set is rimp2-aug-cc-pVTZ
 There are 65 shells and 253 basis functions
 A cutoff of  1.0D-14 yielded    885 shell pairs
 There are      9081 function pairs (     12693 Cartesian)
 
 -------------------------------------------------------
 OpenMP Integral Computing Module                       
 Release: version 1.0, May 2013, Q-Chem Inc. Pittsburgh 
 -------------------------------------------------------
 Integral Job Info:
 Integral job number is                      11
 Integral operator is                         1
 short-range coefficients                     0
 long-range coefficients              100000000
 Omega coefficients                           0
 if combine SR and LR in K                    0
 Integral screening is                        0
 Integral computing path is                   2
 max size of driver memory is            800000
 size of driver memory is                776718
 size of scratch memory is             29531563
 max col of scratch BK array              10000
 max len of scratch array in speh3          662
 max len of scratch index in speh4           32
 max int batch size is                      520
 min int batch size is                       52
 fixed nKL is                                31
 max L of basis functions is                  3
 order of int derivative is                   0
 number of shells is                         42
 number of basis is                         158
 number of cartesian basis is               158
 number of contracted shell pairs           885
 number of primitive shell pairs           5100
 maxK2 (contraction) of shell pair          169
 max number of K2 of shell pair               1
 max number of CS2 of shell pair             98
 max number of PS2 of shell pair           1014
 mem total for path MDJ                  562256
 -------------------------------------------------------
 Smallest overlap matrix eigenvalue = 7.72E-04

 Scale SEOQF with 1.000000e-01/1.000000e-01/1.000000e-01

 Standard Electronic Orientation quadrupole field applied
 Nucleus-field energy     =    -0.0000000026 hartrees
 Guess from superposition of atomic densities
 Warning:  Energy on first SCF cycle will be non-variational
 SAD guess density has 22.000000 electrons
 A restricted hybrid HF-DFT SCF calculation will be
 performed using Pulay DIIS + Geometric Direct Minimization
 Exchange:     0.2000 Hartree-Fock + 0.0800 Slater + 0.7200 B88
 Correlation:  0.1900 VWN1RPA + 0.8100 LYP
 Using Euler-Maclaurin-Lebedev (99,590) quadrature formula
 SCF converges when RMS gradient is below 1.0E-08
 using 8 threads for integral computing
 -------------------------------------------------------
 OpenMP Integral computing Module                
 Release: version 2.0, May 2017, Q-Chem Inc. Pleasanton 
 -------------------------------------------------------
TIMEINFO->: J/JK contribution 9.43 sec.
 -------------------------------------------------------
 OpenMP BLAS3 based DFT computing Module                
 Release: version 1.0, May 2013, Q-Chem Inc. Pittsburgh 
 -------------------------------------------------------
 ---------------------------------------
  Cycle       Energy        RMS Gradient
 ---------------------------------------
    1    -342.3224901893      2.07E-02 Done DIIS. Switching to GDM
TIMEINFO->: J/JK contribution 13.40 sec.
    2    -342.3500690693      1.43E-01 Descent step
TIMEINFO->: J/JK contribution 13.46 sec.
    3    -342.2332453583      3.14E-01 Line search: overstep
TIMEINFO->: J/JK contribution 13.48 sec.
    4    -342.4060254866      3.77E-02 Normal BFGS step
TIMEINFO->: J/JK contribution 13.82 sec.
    5    -342.4134613586      1.09E-02 Normal BFGS step
TIMEINFO->: J/JK contribution 13.76 sec.
    6    -342.4137513437      7.43E-04 Normal BFGS step
TIMEINFO->: J/JK contribution 13.65 sec.
    7    -342.4137566260      1.14E-04 Normal BFGS step
TIMEINFO->: J/JK contribution 13.64 sec.
    8    -342.4137567624      3.48E-05 Normal BFGS step
TIMEINFO->: J/JK contribution 13.56 sec.
    9    -342.4137567733      7.31E-06 Normal BFGS step
TIMEINFO->: J/JK contribution 13.43 sec.
   10    -342.4137567735      2.47E-06 Normal BFGS step
TIMEINFO->: J/JK contribution 13.28 sec.
   11    -342.4137567736      1.31E-07 Normal BFGS step
TIMEINFO->: J/JK contribution 12.93 sec.
   12    -342.4137567736      5.16E-08 Normal BFGS step
TIMEINFO->: J/JK contribution 12.52 sec.
   13    -342.4137567736      8.43E-09 Convergence criterion met
 ---------------------------------------
 B3LYP orbitals are now ready for the XYGJ-OS calculation.
 XYGJ-OS energy = Exch (0.7731 HF  + 0.2269 Slater) + 
                  Corr (0.2754 LYP + 0.2309 VWN1RPA + 0.4364 OS-MP2)
 SCF time:  CPU 206.01 s  wall 25.99 s
 SCF   energy in the final basis set = -341.63083123
 Total energy in the final basis set = -341.63083123
 Entering Scaled Opposite Spin MP2
 NBasAux in rimp2.F =          253

 OS-MP2 job begins now...

 SOS scaling factor =  0.4
 Form (P|Q)**(-1/2)...
 
 Form (ia|P)...
 Form BiaQ = (ia|P)*(P|Q)**(-1/2)...
 Laplace quadrature loop begins
 Laplace point 1: correlation energy     =        -0.2008846153
 Laplace point 2: correlation energy     =        -0.2009762519
 Laplace point 3: correlation energy     =        -0.1345266772
 Laplace point 4: correlation energy     =        -0.0682622770
 Laplace point 5: correlation energy     =        -0.0262633504
 Laplace point 6: correlation energy     =        -0.0068369498
 Laplace point 7: correlation energy     =        -0.0006242444
 
 singles contribution not yet available for XYGJ-OS 
 Total OS-MP2 correlation energy         =        -0.6383743661

 Total XYGJ-OS energy                    =      -341.9094178075
 
 ------------------------------------------------------------------------------
                     SOSMP2        : Timing summary (seconds)
 ------------------------------------------------------------------------------
     job step          cpu (% of tot)      sys (% of tot)     wall (% of tot)
 ------------------------------------------------------------------------------
  Form inv (P|Q)    0.4389E+00 ( 6.9)   0.5000E-05 ( 7.2)   0.5525E-01 ( 6.9)
  Form (ia|P)       0.3884E+01 (61.1)   0.4000E-04 (58.0)   0.4880E+00 (61.0)
  Form  BiaQ        0.2485E+00 ( 3.9)   0.4000E-05 ( 5.8)   0.3123E-01 ( 3.9)
  LP orbitals       0.3090E+00 ( 4.9)   0.1000E-05 ( 1.4)   0.3906E-01 ( 4.9)
  Form  X(PQ)       0.1139E+01 (17.9)   0.1400E-04 (20.3)   0.1438E+00 (18.0)
  Increment EMP2    0.2411E+00 ( 3.8)   0.4000E-05 ( 5.8)   0.3019E-01 ( 3.8)
 ------------------------------------------------------------------------------
   Grand Totals     0.6362E+01          0.6900E-04          0.8001E+00
 ------------------------------------------------------------------------------
 
 --------------------------------------------------------------
 
                    Orbital Energies (a.u.)
 --------------------------------------------------------------
 
 Alpha MOs
 -- Occupied --
-56.041 -24.642  -4.146  -2.699  -2.699  -2.695  -1.144  -0.461
 -0.409  -0.409  -0.258
 -- Virtual --
 -0.058  -0.058  -0.006   0.011   0.027   0.027   0.046   0.058
  0.058   0.069   0.069   0.078   0.183   0.202   0.221   0.221
  0.224   0.224   0.238   0.238   0.244   0.244   0.248   0.264
  0.264   0.265   0.265   0.282   0.389   0.389   0.420   0.559
  0.732   0.732   0.735   0.735   0.794   0.810   0.810   0.860
  0.894   0.894   0.960   0.960   0.976   0.976   0.995   0.995
  1.012   1.153   1.330   1.360   1.360   1.802   1.802   1.980
  2.098   2.601   2.601   2.644   2.644   2.655   2.655   2.817
  2.817   2.834   3.136   3.136   3.424   4.683   4.683   4.717
  4.717   4.782   4.819   4.819   5.241   6.725   6.951   8.303
  8.303   8.381   8.381   8.499   8.499   8.674   8.759   8.759
  8.786   8.786   8.832   8.871   8.871   9.530  18.282  18.282
 18.286  18.286  18.295  18.295  18.339  21.900  21.900  21.967
 21.967  22.145  31.003  31.003  31.217  34.133  34.133  34.354
 34.721  42.921  51.976  51.976  52.004  52.004  52.049 168.208
168.208 168.373 180.691
 --------------------------------------------------------------
 
          Ground-State Mulliken Net Atomic Charges

     Atom                 Charge (a.u.)
  ----------------------------------------
      1 Al                    0.581241
      2 F                    -0.581241
  ----------------------------------------
  Sum of atomic charges =     0.000000

 -----------------------------------------------------------------
                    Cartesian Multipole Moments
 -----------------------------------------------------------------
    Charge (ESU x 10^10)
                 0.0000
    Dipole Moment (Debye)
         X      -0.0000      Y      -0.0000      Z      -1.4998
       Tot       1.4998
    Quadrupole Moments (Debye-Ang)
        XX     -15.8797     XY       0.0000     YY     -15.8797
        XZ      -0.0000     YZ      -0.0000     ZZ     -22.9146
    Octopole Moments (Debye-Ang^2)
       XXX      -0.0000    XXY      -0.0000    XYY      -0.0000
       YYY      -0.0000    XXZ      -7.0520    XYZ       0.0000
       YYZ      -7.0520    XZZ      -0.0000    YZZ      -0.0000
       ZZZ     -31.2671
    Hexadecapole Moments (Debye-Ang^3)
      XXXX     -25.2973   XXXY      -0.0000   XXYY      -8.4324
      XYYY      -0.0000   YYYY     -25.2973   XXXZ      -0.0000
      XXYZ      -0.0000   XYYZ      -0.0000   YYYZ      -0.0000
      XXZZ     -24.1214   XYZZ       0.0000   YYZZ     -24.1214
      XZZZ      -0.0000   YZZZ      -0.0000   ZZZZ    -132.1113
 -----------------------------------------------------------------
Archival summary:
1\1\n0034.mhg0\SP\ProcedureUnspecified\BasisUnspecified\l11\yhljason\WedOct2103:28:552020WedOct2103:28:552020\0\\#,ProcedureUnspecified,BasisUnspecified,\\0,1\Al\F,1,1.6544\\\@

 Total job time:  27.58s(wall), 217.72s(cpu) 
 Wed Oct 21 03:28:55 2020

        *************************************************************
        *                                                           *
        *  Thank you very much for using Q-Chem.  Have a nice day.  *
        *                                                           *
        *************************************************************


 
User input: 2 of 7 
 
Q-Chem Developer Version!
                  Welcome to Q-Chem
     A Quantum Leap Into The Future Of Chemistry


 Q-Chem 5.1, Q-Chem, Inc., Pleasanton, CA (2018)

 Yihan Shao,  Zhengting Gan,  E. Epifanovsky,  A. T. B. Gilbert,  M. Wormit,  
 J. Kussmann,  A. W. Lange,  A. Behn,  Jia Deng,  Xintian Feng,  D. Ghosh,  
 M. Goldey,  P. R. Horn,  L. D. Jacobson,  I. Kaliman,  T. Kus,  A. Landau,  
 Jie Liu,  E. I. Proynov,  R. M. Richard,  R. P. Steele,  E. J. Sundstrom,  
 H. L. Woodcock III,  P. M. Zimmerman,  D. Zuev,  B. Albrecht,  E. Alguire,  
 S. A. Baeppler,  D. Barton,  Z. Benda,  Y. A. Bernard,  E. J. Berquist,  
 K. B. Bravaya,  H. Burton,  D. Casanova,  Chun-Min Chang,  Yunqing Chen,  
 A. Chien,  K. D. Closser,  M. P. Coons,  S. Coriani,  S. Dasgupta,  
 A. L. Dempwolff,  M. Diedenhofen,  Hainam Do,  R. G. Edgar,  Po-Tung Fang,  
 S. Faraji,  S. Fatehi,  Qingguo Feng,  K. D. Fenk,  J. Fosso-Tande,  
 Qinghui Ge,  A. Ghysels,  G. Gidofalvi,  J. Gomes,  J. Gonthier,  A. Gunina,  
 D. Hait,  M. W. D. Hanson-Heine,  P. H. P. Harbach,  A. W. Hauser,  
 J. E. Herr,  E. G. Hohenstein,  Z. C. Holden,  Kerwin Hui,  B. C. Huynh,  
 T.-C. Jagau,  Hyunjun Ji,  B. Kaduk,  K. Khistyaev,  Jaehoon Kim,  
 P. Klunzinger,  K. Koh,  D. Kosenkov,  L. Koulias,  T. Kowalczyk,  
 C. M. Krauter,  A. Kunitsa,  Ka Un Lao,  A. Laurent,  K. V. Lawler,  
 Joonho Lee,  D. Lefrancois,  S. Lehtola,  D. S. Levine,  Yi-Pei Li,  
 You-Sheng Lin,  Fenglai Liu,  E. Livshits,  A. Luenser,  P. Manohar,  
 E. Mansoor,  S. F. Manzer,  Shan-Ping Mao,  Yuezhi Mao,  N. Mardirossian,  
 A. V. Marenich,  T. Markovich,  L. A. Martinez-Martinez,  S. A. Maurer,  
 N. J. Mayhall,  S. C. McKenzie,  J.-M. Mewes,  A. F. Morrison,  
 J. W. Mullinax,  K. Nanda,  T. S. Nguyen-Beck,  R. Olivares-Amaya,  
 J. A. Parkhill,  T. M. Perrine,  F. Plasser,  P. Pokhilko,  S. Prager,  
 A. Prociuk,  E. Ramos,  D. R. Rehn,  F. Rob,  M. Schneider,  N. Sergueev,  
 S. M. Sharada,  S. Sharma,  D. W. Small,  T. Stauch,  T. Stein,  
 Yu-Chuan Su,  A. J. W. Thom,  A. Tkatchenko,  T. Tsuchimochi,  N. M. Tubman,  
 L. Vogt,  M. L. Vidal,  O. Vydrov,  M. A. Watson,  J. Wenzel,  
 M. de Wergifosse,  T. A. Wesolowski,  A. White,  J. Witte,  A. Yamada,  
 Jun Yang,  K. Yao,  S. Yeganeh,  S. R. Yost,  Zhi-Qiang You,  A. Zech,  
 Igor Ying Zhang,  Xing Zhang,  Yan Zhao,  Ying Zhu,  B. R. Brooks,  
 G. K. L. Chan,  C. J. Cramer,  M. S. Gordon,  W. J. Hehre,  A. Klamt,  
 M. W. Schmidt,  C. D. Sherrill,  D. G. Truhlar,  A. Aspuru-Guzik,  R. Baer,  
 A. T. Bell,  N. A. Besley,  Jeng-Da Chai,  A. E. DePrince, III,  
 R. A. DiStasio Jr.,  A. Dreuw,  B. D. Dunietz,  T. R. Furlani,  
 Chao-Ping Hsu,  Yousung Jung,  Jing Kong,  D. S. Lambrecht,  WanZhen Liang,  
 C. Ochsenfeld,  V. A. Rassolov,  L. V. Slipchenko,  J. E. Subotnik,  
 T. Van Voorhis,  J. M. Herbert,  A. I. Krylov,  P. M. W. Gill,  M. Head-Gordon

 Contributors to earlier versions of Q-Chem not listed above: 
 R. D. Adamson,  B. Austin,  J. Baker,  G. J. O. Beran,  K. Brandhorst,  
 S. T. Brown,  E. F. C. Byrd,  A. K. Chakraborty,  C.-L. Cheng,  
 Siu Hung Chien,  D. M. Chipman,  D. L. Crittenden,  H. Dachsel,  
 R. J. Doerksen,  A. D. Dutoi,  L. Fusti-Molnar,  W. A. Goddard III,  
 A. Golubeva-Zadorozhnaya,  S. R. Gwaltney,  G. Hawkins,  A. Heyden,  
 S. Hirata,  G. Kedziora,  F. J. Keil,  C. Kelley,  Jihan Kim,  R. A. King,  
 R. Z. Khaliullin,  P. P. Korambath,  W. Kurlancheek,  A. M. Lee,  M. S. Lee,  
 S. V. Levchenko,  Ching Yeh Lin,  D. Liotard,  R. C. Lochan,  I. Lotan,  
 P. E. Maslen,  N. Nair,  D. P. O'Neill,  D. Neuhauser,  E. Neuscamman,  
 C. M. Oana,  R. Olson,  B. Peters,  R. Peverati,  P. A. Pieniazek,  
 Y. M. Rhee,  J. Ritchie,  M. A. Rohrdanz,  E. Rosta,  N. J. Russ,  
 H. F. Schaefer III,  N. E. Schultz,  N. Shenvi,  A. C. Simmonett,  A. Sodt,  
 D. Stuck,  K. S. Thanthiriwatte,  V. Vanovschi,  Tao Wang,  A. Warshel,  
 C. F. Williams,  Q. Wu,  X. Xu,  W. Zhang

 Please cite Q-Chem as follows:
 Y. Shao et al., Mol. Phys. 113, 184-215 (2015)
 DOI: 10.1080/00268976.2014.952696

 Q-Chem 5.1.1 for Intel X86 EM64T Linux

 Parts of Q-Chem use Armadillo 8.300.2 (Tropical Shenanigans).
 http://arma.sourceforge.net/

 Q-Chem begins on Wed Oct 21 03:28:55 2020  

Host: n0034.mhg0
0

     Scratch files written to /local/scratch/users/yhljason/AlF_XYGJOS_aug-cc-pcVTZ.inp20201021032825//
The previous job contains 0 fragments, simply inherited here
Input Ideriv = 2
Curr. Ideriv = -1
Max.  Ideriv = 2

Checking the input file for inconsistencies... 	...done.

--------------------------------------------------------------
User input:
--------------------------------------------------------------
$molecule
read
$end

$rem

jobtype sp
exchange XYGJOS
xc_grid 000099000590
basis aug-cc-pcVTZ
aux_basis rimp2-aug-cc-pVTZ
max_scf_cycles 200
thresh 14
scf_convergence 8
mem_total 128000
cc_memory 96000
cc_backend xm
mem_static 1500
symmetry false
sym_ignore true
scf_guess read
unrestricted false
scf_algorithm gdm
n_frozen_core 0
$end

$multipole_field
XX 0.0001
$end


--------------------------------------------------------------
 ----------------------------------------------------------------
             Standard Nuclear Orientation (Angstroms)
    I     Atom           X                Y                Z
 ----------------------------------------------------------------
    1      Al      0.0000000000     0.0000000000     0.0000000000
    2      F       0.0000000000     0.0000000000     1.6544000000
 ----------------------------------------------------------------
 Nuclear Repulsion Energy =    37.4236784717 hartrees
 There are       11 alpha and       11 beta electrons
 Requested basis set is aug-cc-pCVTZ
 There are 42 shells and 134 basis functions

 Total QAlloc Memory Limit 128000 MB
 Mega-Array Size      1467 MB
 MEM_STATIC part      1500 MB

                       Distance Matrix (Angstroms)
             Al(  1)
   F (  2)  1.654400
 
 Applying Cartesian multipole field
    Component          Value
    ---------          -----
     (2,0,0)        1.00000E-04
 Requested basis set is rimp2-aug-cc-pVTZ
 There are 65 shells and 253 basis functions
 A cutoff of  1.0D-14 yielded    885 shell pairs
 There are      9081 function pairs (     12693 Cartesian)
 
 -------------------------------------------------------
 OpenMP Integral Computing Module                       
 Release: version 1.0, May 2013, Q-Chem Inc. Pittsburgh 
 -------------------------------------------------------
 Integral Job Info:
 Integral job number is                      11
 Integral operator is                         1
 short-range coefficients                     0
 long-range coefficients              100000000
 Omega coefficients                           0
 if combine SR and LR in K                    0
 Integral screening is                        0
 Integral computing path is                   2
 max size of driver memory is            800000
 size of driver memory is                776718
 size of scratch memory is             29531563
 max col of scratch BK array              10000
 max len of scratch array in speh3          662
 max len of scratch index in speh4           32
 max int batch size is                      520
 min int batch size is                       52
 fixed nKL is                                31
 max L of basis functions is                  3
 order of int derivative is                   0
 number of shells is                         42
 number of basis is                         158
 number of cartesian basis is               158
 number of contracted shell pairs           885
 number of primitive shell pairs           5100
 maxK2 (contraction) of shell pair          169
 max number of K2 of shell pair               1
 max number of CS2 of shell pair             98
 max number of PS2 of shell pair           1014
 mem total for path MDJ                  562256
 -------------------------------------------------------
 Smallest overlap matrix eigenvalue = 7.72E-04
 Guess MOs from SCF MO coefficient file
 Reading MOs from coefficient file
 Reading MOs from coefficient file
 A restricted hybrid HF-DFT SCF calculation will be
 performed using Geometric Direct Minimization
 Exchange:     0.2000 Hartree-Fock + 0.0800 Slater + 0.7200 B88
 Correlation:  0.1900 VWN1RPA + 0.8100 LYP
 Using Euler-Maclaurin-Lebedev (99,590) quadrature formula
 SCF converges when RMS gradient is below 1.0E-08
Using Q-Chem read-in guess as SCF_GUESS READ specified.

 using 8 threads for integral computing
 -------------------------------------------------------
 OpenMP Integral computing Module                
 Release: version 2.0, May 2017, Q-Chem Inc. Pleasanton 
 -------------------------------------------------------
TIMEINFO->: J/JK contribution 13.69 sec.
 -------------------------------------------------------
 OpenMP BLAS3 based DFT computing Module                
 Release: version 1.0, May 2013, Q-Chem Inc. Pittsburgh 
 -------------------------------------------------------
 ---------------------------------------
  Cycle       Energy        RMS Gradient
 ---------------------------------------
    1    -342.4149373934      6.13E-04 Normal BFGS step
TIMEINFO->: J/JK contribution 13.42 sec.
    2    -342.4149385073      1.25E-04 Normal BFGS step
TIMEINFO->: J/JK contribution 13.13 sec.
    3    -342.4149384587      3.15E-04 Line search: overstep
TIMEINFO->: J/JK contribution 13.10 sec.
    4    -342.4149385937      6.65E-05 Normal BFGS step
TIMEINFO->: J/JK contribution 13.05 sec.
    5    -342.4149386041      1.90E-05 Normal BFGS step
TIMEINFO->: J/JK contribution 13.06 sec.
    6    -342.4149386059      2.36E-06 Normal BFGS step
TIMEINFO->: J/JK contribution 12.88 sec.
    7    -342.4149386059      6.94E-07 Normal BFGS step
TIMEINFO->: J/JK contribution 12.64 sec.
    8    -342.4149386059      5.52E-08 Normal BFGS step
TIMEINFO->: J/JK contribution 12.26 sec.
    9    -342.4149386059      9.27E-09 Convergence criterion met
 ---------------------------------------
 B3LYP orbitals are now ready for the XYGJ-OS calculation.
 XYGJ-OS energy = Exch (0.7731 HF  + 0.2269 Slater) + 
                  Corr (0.2754 LYP + 0.2309 VWN1RPA + 0.4364 OS-MP2)
 SCF time:  CPU 142.46 s  wall 17.98 s
 SCF   energy in the final basis set = -341.63199510
 Total energy in the final basis set = -341.63199510
 Entering Scaled Opposite Spin MP2
 NBasAux in rimp2.F =          253

 OS-MP2 job begins now...

 SOS scaling factor =  0.4
 Form (P|Q)**(-1/2)...
 
 Form (ia|P)...
 Form BiaQ = (ia|P)*(P|Q)**(-1/2)...
 Laplace quadrature loop begins
 Laplace point 1: correlation energy     =        -0.2008817397
 Laplace point 2: correlation energy     =        -0.2009725928
 Laplace point 3: correlation energy     =        -0.1345298401
 Laplace point 4: correlation energy     =        -0.0682765337
 Laplace point 5: correlation energy     =        -0.0262784677
 Laplace point 6: correlation energy     =        -0.0068453745
 Laplace point 7: correlation energy     =        -0.0006266452
 
 singles contribution not yet available for XYGJ-OS 
 Total OS-MP2 correlation energy         =        -0.6384111938

 Total XYGJ-OS energy                    =      -341.9105977437
 
 ------------------------------------------------------------------------------
                     SOSMP2        : Timing summary (seconds)
 ------------------------------------------------------------------------------
     job step          cpu (% of tot)      sys (% of tot)     wall (% of tot)
 ------------------------------------------------------------------------------
  Form inv (P|Q)    0.4350E+00 ( 6.8)   0.4000E-05 ( 5.6)   0.5477E-01 ( 6.8)
  Form (ia|P)       0.3979E+01 (61.9)   0.4500E-04 (62.5)   0.5032E+00 (62.1)
  Form  BiaQ        0.2227E+00 ( 3.5)   0.2000E-05 ( 2.8)   0.2795E-01 ( 3.4)
  LP orbitals       0.3058E+00 ( 4.8)   0.5000E-05 ( 6.9)   0.3835E-01 ( 4.7)
  Form  X(PQ)       0.1145E+01 (17.8)   0.1300E-04 (18.1)   0.1436E+00 (17.7)
  Increment EMP2    0.2394E+00 ( 3.7)   0.2000E-05 ( 2.8)   0.3005E-01 ( 3.7)
 ------------------------------------------------------------------------------
   Grand Totals     0.6427E+01          0.7200E-04          0.8105E+00
 ------------------------------------------------------------------------------
 
 --------------------------------------------------------------
 
                    Orbital Energies (a.u.)
 --------------------------------------------------------------
 
 Alpha MOs
 -- Occupied --
-56.042 -24.643  -4.146  -2.699  -2.699  -2.695  -1.144  -0.461
 -0.410  -0.410  -0.258
 -- Virtual --
 -0.059  -0.058  -0.008   0.009   0.021   0.025   0.044   0.056
  0.056   0.066   0.068   0.076   0.182   0.201   0.219   0.220
  0.222   0.222   0.236   0.237   0.243   0.244   0.247   0.263
  0.263   0.264   0.264   0.281   0.388   0.389   0.420   0.559
  0.732   0.732   0.734   0.734   0.794   0.810   0.810   0.860
  0.894   0.894   0.959   0.959   0.975   0.975   0.994   0.994
  1.011   1.152   1.330   1.359   1.360   1.801   1.801   1.980
  2.098   2.601   2.601   2.644   2.644   2.655   2.655   2.816
  2.816   2.834   3.136   3.136   3.424   4.683   4.683   4.717
  4.717   4.781   4.819   4.819   5.240   6.725   6.951   8.303
  8.303   8.380   8.380   8.499   8.499   8.674   8.759   8.759
  8.786   8.786   8.832   8.871   8.871   9.530  18.281  18.281
 18.285  18.285  18.295  18.295  18.339  21.899  21.899  21.967
 21.967  22.145  31.003  31.003  31.217  34.132  34.132  34.354
 34.721  42.921  51.975  51.975  52.004  52.004  52.048 168.208
168.208 168.373 180.691
 --------------------------------------------------------------
 
          Ground-State Mulliken Net Atomic Charges

     Atom                 Charge (a.u.)
  ----------------------------------------
      1 Al                    0.581010
      2 F                    -0.581010
  ----------------------------------------
  Sum of atomic charges =     0.000000

 -----------------------------------------------------------------
                    Cartesian Multipole Moments
 -----------------------------------------------------------------
    Charge (ESU x 10^10)
                 0.0000
    Dipole Moment (Debye)
         X      -0.0000      Y       0.0000      Z      -1.5003
       Tot       1.5003
    Quadrupole Moments (Debye-Ang)
        XX     -15.9125     XY       0.0000     YY     -15.8803
        XZ       0.0000     YZ      -0.0000     ZZ     -22.9133
    Octopole Moments (Debye-Ang^2)
       XXX       0.0000    XXY       0.0000    XYY      -0.0000
       YYY       0.0000    XXZ      -7.0458    XYZ       0.0000
       YYZ      -7.0534    XZZ      -0.0000    YZZ      -0.0000
       ZZZ     -31.2636
    Hexadecapole Moments (Debye-Ang^3)
      XXXX     -25.5107   XXXY       0.0000   XXYY      -8.4692
      XYYY       0.0000   YYYY     -25.3049   XXXZ      -0.0000
      XXYZ      -0.0000   XYYZ       0.0000   YYYZ      -0.0000
      XXZZ     -24.1640   XYZZ       0.0000   YYZZ     -24.1254
      XZZZ      -0.0000   YZZZ      -0.0000   ZZZZ    -132.1148
 -----------------------------------------------------------------
Archival summary:
1\1\n0034.mhg0\SP\ProcedureUnspecified\BasisUnspecified\l11\yhljason\WedOct2103:29:142020WedOct2103:29:142020\0\\#,ProcedureUnspecified,BasisUnspecified,\\0,1\Al\F,1,1.6544\\\@

 Total job time:  19.45s(wall), 153.79s(cpu) 
 Wed Oct 21 03:29:14 2020

        *************************************************************
        *                                                           *
        *  Thank you very much for using Q-Chem.  Have a nice day.  *
        *                                                           *
        *************************************************************


 
User input: 3 of 7 
 
Q-Chem Developer Version!
                  Welcome to Q-Chem
     A Quantum Leap Into The Future Of Chemistry


 Q-Chem 5.1, Q-Chem, Inc., Pleasanton, CA (2018)

 Yihan Shao,  Zhengting Gan,  E. Epifanovsky,  A. T. B. Gilbert,  M. Wormit,  
 J. Kussmann,  A. W. Lange,  A. Behn,  Jia Deng,  Xintian Feng,  D. Ghosh,  
 M. Goldey,  P. R. Horn,  L. D. Jacobson,  I. Kaliman,  T. Kus,  A. Landau,  
 Jie Liu,  E. I. Proynov,  R. M. Richard,  R. P. Steele,  E. J. Sundstrom,  
 H. L. Woodcock III,  P. M. Zimmerman,  D. Zuev,  B. Albrecht,  E. Alguire,  
 S. A. Baeppler,  D. Barton,  Z. Benda,  Y. A. Bernard,  E. J. Berquist,  
 K. B. Bravaya,  H. Burton,  D. Casanova,  Chun-Min Chang,  Yunqing Chen,  
 A. Chien,  K. D. Closser,  M. P. Coons,  S. Coriani,  S. Dasgupta,  
 A. L. Dempwolff,  M. Diedenhofen,  Hainam Do,  R. G. Edgar,  Po-Tung Fang,  
 S. Faraji,  S. Fatehi,  Qingguo Feng,  K. D. Fenk,  J. Fosso-Tande,  
 Qinghui Ge,  A. Ghysels,  G. Gidofalvi,  J. Gomes,  J. Gonthier,  A. Gunina,  
 D. Hait,  M. W. D. Hanson-Heine,  P. H. P. Harbach,  A. W. Hauser,  
 J. E. Herr,  E. G. Hohenstein,  Z. C. Holden,  Kerwin Hui,  B. C. Huynh,  
 T.-C. Jagau,  Hyunjun Ji,  B. Kaduk,  K. Khistyaev,  Jaehoon Kim,  
 P. Klunzinger,  K. Koh,  D. Kosenkov,  L. Koulias,  T. Kowalczyk,  
 C. M. Krauter,  A. Kunitsa,  Ka Un Lao,  A. Laurent,  K. V. Lawler,  
 Joonho Lee,  D. Lefrancois,  S. Lehtola,  D. S. Levine,  Yi-Pei Li,  
 You-Sheng Lin,  Fenglai Liu,  E. Livshits,  A. Luenser,  P. Manohar,  
 E. Mansoor,  S. F. Manzer,  Shan-Ping Mao,  Yuezhi Mao,  N. Mardirossian,  
 A. V. Marenich,  T. Markovich,  L. A. Martinez-Martinez,  S. A. Maurer,  
 N. J. Mayhall,  S. C. McKenzie,  J.-M. Mewes,  A. F. Morrison,  
 J. W. Mullinax,  K. Nanda,  T. S. Nguyen-Beck,  R. Olivares-Amaya,  
 J. A. Parkhill,  T. M. Perrine,  F. Plasser,  P. Pokhilko,  S. Prager,  
 A. Prociuk,  E. Ramos,  D. R. Rehn,  F. Rob,  M. Schneider,  N. Sergueev,  
 S. M. Sharada,  S. Sharma,  D. W. Small,  T. Stauch,  T. Stein,  
 Yu-Chuan Su,  A. J. W. Thom,  A. Tkatchenko,  T. Tsuchimochi,  N. M. Tubman,  
 L. Vogt,  M. L. Vidal,  O. Vydrov,  M. A. Watson,  J. Wenzel,  
 M. de Wergifosse,  T. A. Wesolowski,  A. White,  J. Witte,  A. Yamada,  
 Jun Yang,  K. Yao,  S. Yeganeh,  S. R. Yost,  Zhi-Qiang You,  A. Zech,  
 Igor Ying Zhang,  Xing Zhang,  Yan Zhao,  Ying Zhu,  B. R. Brooks,  
 G. K. L. Chan,  C. J. Cramer,  M. S. Gordon,  W. J. Hehre,  A. Klamt,  
 M. W. Schmidt,  C. D. Sherrill,  D. G. Truhlar,  A. Aspuru-Guzik,  R. Baer,  
 A. T. Bell,  N. A. Besley,  Jeng-Da Chai,  A. E. DePrince, III,  
 R. A. DiStasio Jr.,  A. Dreuw,  B. D. Dunietz,  T. R. Furlani,  
 Chao-Ping Hsu,  Yousung Jung,  Jing Kong,  D. S. Lambrecht,  WanZhen Liang,  
 C. Ochsenfeld,  V. A. Rassolov,  L. V. Slipchenko,  J. E. Subotnik,  
 T. Van Voorhis,  J. M. Herbert,  A. I. Krylov,  P. M. W. Gill,  M. Head-Gordon

 Contributors to earlier versions of Q-Chem not listed above: 
 R. D. Adamson,  B. Austin,  J. Baker,  G. J. O. Beran,  K. Brandhorst,  
 S. T. Brown,  E. F. C. Byrd,  A. K. Chakraborty,  C.-L. Cheng,  
 Siu Hung Chien,  D. M. Chipman,  D. L. Crittenden,  H. Dachsel,  
 R. J. Doerksen,  A. D. Dutoi,  L. Fusti-Molnar,  W. A. Goddard III,  
 A. Golubeva-Zadorozhnaya,  S. R. Gwaltney,  G. Hawkins,  A. Heyden,  
 S. Hirata,  G. Kedziora,  F. J. Keil,  C. Kelley,  Jihan Kim,  R. A. King,  
 R. Z. Khaliullin,  P. P. Korambath,  W. Kurlancheek,  A. M. Lee,  M. S. Lee,  
 S. V. Levchenko,  Ching Yeh Lin,  D. Liotard,  R. C. Lochan,  I. Lotan,  
 P. E. Maslen,  N. Nair,  D. P. O'Neill,  D. Neuhauser,  E. Neuscamman,  
 C. M. Oana,  R. Olson,  B. Peters,  R. Peverati,  P. A. Pieniazek,  
 Y. M. Rhee,  J. Ritchie,  M. A. Rohrdanz,  E. Rosta,  N. J. Russ,  
 H. F. Schaefer III,  N. E. Schultz,  N. Shenvi,  A. C. Simmonett,  A. Sodt,  
 D. Stuck,  K. S. Thanthiriwatte,  V. Vanovschi,  Tao Wang,  A. Warshel,  
 C. F. Williams,  Q. Wu,  X. Xu,  W. Zhang

 Please cite Q-Chem as follows:
 Y. Shao et al., Mol. Phys. 113, 184-215 (2015)
 DOI: 10.1080/00268976.2014.952696

 Q-Chem 5.1.1 for Intel X86 EM64T Linux

 Parts of Q-Chem use Armadillo 8.300.2 (Tropical Shenanigans).
 http://arma.sourceforge.net/

 Q-Chem begins on Wed Oct 21 03:29:14 2020  

Host: n0034.mhg0
0

     Scratch files written to /local/scratch/users/yhljason/AlF_XYGJOS_aug-cc-pcVTZ.inp20201021032825//
The previous job contains 0 fragments, simply inherited here
Input Ideriv = 2
Curr. Ideriv = -1
Max.  Ideriv = 2

Checking the input file for inconsistencies... 	...done.

--------------------------------------------------------------
User input:
--------------------------------------------------------------
$molecule
read
$end

$rem

jobtype sp
exchange XYGJOS
xc_grid 000099000590
basis aug-cc-pcVTZ
aux_basis rimp2-aug-cc-pVTZ
max_scf_cycles 200
thresh 14
scf_convergence 8
mem_total 128000
cc_memory 96000
cc_backend xm
mem_static 1500
symmetry false
sym_ignore true
scf_guess read
unrestricted false
scf_algorithm gdm
n_frozen_core 0
$end

$multipole_field
XX -0.0001
$end


--------------------------------------------------------------
 ----------------------------------------------------------------
             Standard Nuclear Orientation (Angstroms)
    I     Atom           X                Y                Z
 ----------------------------------------------------------------
    1      Al      0.0000000000     0.0000000000     0.0000000000
    2      F       0.0000000000     0.0000000000     1.6544000000
 ----------------------------------------------------------------
 Nuclear Repulsion Energy =    37.4236784717 hartrees
 There are       11 alpha and       11 beta electrons
 Requested basis set is aug-cc-pCVTZ
 There are 42 shells and 134 basis functions

 Total QAlloc Memory Limit 128000 MB
 Mega-Array Size      1467 MB
 MEM_STATIC part      1500 MB

                       Distance Matrix (Angstroms)
             Al(  1)
   F (  2)  1.654400
 
 Applying Cartesian multipole field
    Component          Value
    ---------          -----
     (2,0,0)       -1.00000E-04
 Requested basis set is rimp2-aug-cc-pVTZ
 There are 65 shells and 253 basis functions
 A cutoff of  1.0D-14 yielded    885 shell pairs
 There are      9081 function pairs (     12693 Cartesian)
 
 -------------------------------------------------------
 OpenMP Integral Computing Module                       
 Release: version 1.0, May 2013, Q-Chem Inc. Pittsburgh 
 -------------------------------------------------------
 Integral Job Info:
 Integral job number is                      11
 Integral operator is                         1
 short-range coefficients                     0
 long-range coefficients              100000000
 Omega coefficients                           0
 if combine SR and LR in K                    0
 Integral screening is                        0
 Integral computing path is                   2
 max size of driver memory is            800000
 size of driver memory is                776718
 size of scratch memory is             29531563
 max col of scratch BK array              10000
 max len of scratch array in speh3          662
 max len of scratch index in speh4           32
 max int batch size is                      520
 min int batch size is                       52
 fixed nKL is                                31
 max L of basis functions is                  3
 order of int derivative is                   0
 number of shells is                         42
 number of basis is                         158
 number of cartesian basis is               158
 number of contracted shell pairs           885
 number of primitive shell pairs           5100
 maxK2 (contraction) of shell pair          169
 max number of K2 of shell pair               1
 max number of CS2 of shell pair             98
 max number of PS2 of shell pair           1014
 mem total for path MDJ                  562256
 -------------------------------------------------------
 Smallest overlap matrix eigenvalue = 7.72E-04
 Guess MOs from SCF MO coefficient file
 Reading MOs from coefficient file
 Reading MOs from coefficient file
 A restricted hybrid HF-DFT SCF calculation will be
 performed using Geometric Direct Minimization
 Exchange:     0.2000 Hartree-Fock + 0.0800 Slater + 0.7200 B88
 Correlation:  0.1900 VWN1RPA + 0.8100 LYP
 Using Euler-Maclaurin-Lebedev (99,590) quadrature formula
 SCF converges when RMS gradient is below 1.0E-08
Using Q-Chem read-in guess as SCF_GUESS READ specified.

 using 8 threads for integral computing
 -------------------------------------------------------
 OpenMP Integral computing Module                
 Release: version 2.0, May 2017, Q-Chem Inc. Pleasanton 
 -------------------------------------------------------
TIMEINFO->: J/JK contribution 13.55 sec.
 -------------------------------------------------------
 OpenMP BLAS3 based DFT computing Module                
 Release: version 1.0, May 2013, Q-Chem Inc. Pittsburgh 
 -------------------------------------------------------
 ---------------------------------------
  Cycle       Energy        RMS Gradient
 ---------------------------------------
    1    -342.4125724999      1.27E-03 Normal BFGS step
TIMEINFO->: J/JK contribution 13.56 sec.
    2    -342.4125769586      2.49E-04 Normal BFGS step
TIMEINFO->: J/JK contribution 13.25 sec.
    3    -342.4125767628      6.29E-04 Line search: overstep
TIMEINFO->: J/JK contribution 13.10 sec.
    4    -342.4125773018      1.31E-04 Normal BFGS step
TIMEINFO->: J/JK contribution 13.23 sec.
    5    -342.4125773431      3.80E-05 Normal BFGS step
TIMEINFO->: J/JK contribution 13.24 sec.
    6    -342.4125773500      4.70E-06 Normal BFGS step
TIMEINFO->: J/JK contribution 13.00 sec.
    7    -342.4125773501      1.38E-06 Normal BFGS step
TIMEINFO->: J/JK contribution 12.80 sec.
    8    -342.4125773502      1.14E-07 Normal BFGS step
TIMEINFO->: J/JK contribution 12.60 sec.
    9    -342.4125773502      1.89E-08 Normal BFGS step
TIMEINFO->: J/JK contribution 12.06 sec.
   GDM::WARNING energy changes are now smaller than effective accuracy.
   GDM::        calculation will continue, but THRESH should be increased
   GDM::        or SCF_CONVERGENCE decreased.
   GDM::        effective_thresh =   1.100000000000000E-010
   10    -342.4125773502      1.97E-09 Convergence criterion met
 ---------------------------------------
 B3LYP orbitals are now ready for the XYGJ-OS calculation.
 XYGJ-OS energy = Exch (0.7731 HF  + 0.2269 Slater) + 
                  Corr (0.2754 LYP + 0.2309 VWN1RPA + 0.4364 OS-MP2)
 SCF time:  CPU 157.94 s  wall 19.94 s
 SCF   energy in the final basis set = -341.62966959
 Total energy in the final basis set = -341.62966959
 Entering Scaled Opposite Spin MP2
 NBasAux in rimp2.F =          253

 OS-MP2 job begins now...

 SOS scaling factor =  0.4
 Form (P|Q)**(-1/2)...
 
 Form (ia|P)...
 Form BiaQ = (ia|P)*(P|Q)**(-1/2)...
 Laplace quadrature loop begins
 Laplace point 1: correlation energy     =        -0.2008874677
 Laplace point 2: correlation energy     =        -0.2009798551
 Laplace point 3: correlation energy     =        -0.1345234510
 Laplace point 4: correlation energy     =        -0.0682480151
 Laplace point 5: correlation energy     =        -0.0262483123
 Laplace point 6: correlation energy     =        -0.0068286395
 Laplace point 7: correlation energy     =        -0.0006218966
 
 singles contribution not yet available for XYGJ-OS 
 Total OS-MP2 correlation energy         =        -0.6383376373

 Total XYGJ-OS energy                    =      -341.9082401314
 
 ------------------------------------------------------------------------------
                     SOSMP2        : Timing summary (seconds)
 ------------------------------------------------------------------------------
     job step          cpu (% of tot)      sys (% of tot)     wall (% of tot)
 ------------------------------------------------------------------------------
  Form inv (P|Q)    0.4325E+00 ( 6.8)   0.8000E-05 (11.3)   0.5444E-01 ( 6.8)
  Form (ia|P)       0.3895E+01 (61.4)   0.3900E-04 (54.9)   0.4897E+00 (61.4)
  Form  BiaQ        0.2251E+00 ( 3.5)   0.3000E-05 ( 4.2)   0.2827E-01 ( 3.5)
  LP orbitals       0.3069E+00 ( 4.8)   0.7000E-05 ( 9.9)   0.3860E-01 ( 4.8)
  Form  X(PQ)       0.1141E+01 (18.0)   0.1200E-04 (16.9)   0.1431E+00 (17.9)
  Increment EMP2    0.2440E+00 ( 3.8)   0.2000E-05 ( 2.8)   0.3070E-01 ( 3.8)
 ------------------------------------------------------------------------------
   Grand Totals     0.6347E+01          0.7100E-04          0.7976E+00
 ------------------------------------------------------------------------------
 
 --------------------------------------------------------------
 
                    Orbital Energies (a.u.)
 --------------------------------------------------------------
 
 Alpha MOs
 -- Occupied --
-56.041 -24.642  -4.146  -2.699  -2.699  -2.695  -1.144  -0.461
 -0.409  -0.409  -0.257
 -- Virtual --
 -0.057  -0.056  -0.005   0.013   0.029   0.033   0.047   0.060
  0.060   0.069   0.071   0.079   0.184   0.204   0.221   0.223
  0.225   0.225   0.239   0.240   0.245   0.245   0.248   0.265
  0.265   0.267   0.267   0.283   0.390   0.390   0.421   0.560
  0.733   0.733   0.735   0.735   0.795   0.811   0.811   0.861
  0.895   0.895   0.960   0.960   0.976   0.976   0.995   0.995
  1.012   1.153   1.331   1.360   1.360   1.802   1.802   1.981
  2.099   2.601   2.601   2.644   2.644   2.656   2.656   2.817
  2.817   2.834   3.136   3.136   3.425   4.683   4.683   4.717
  4.717   4.782   4.820   4.820   5.241   6.725   6.951   8.304
  8.304   8.381   8.381   8.499   8.499   8.674   8.760   8.760
  8.787   8.787   8.832   8.872   8.872   9.531  18.282  18.282
 18.286  18.286  18.296  18.296  18.339  21.900  21.900  21.967
 21.967  22.146  31.003  31.003  31.217  34.133  34.133  34.355
 34.722  42.921  51.976  51.976  52.005  52.005  52.049 168.208
168.208 168.373 180.692
 --------------------------------------------------------------
 
          Ground-State Mulliken Net Atomic Charges

     Atom                 Charge (a.u.)
  ----------------------------------------
      1 Al                    0.581486
      2 F                    -0.581486
  ----------------------------------------
  Sum of atomic charges =    -0.000000

 -----------------------------------------------------------------
                    Cartesian Multipole Moments
 -----------------------------------------------------------------
    Charge (ESU x 10^10)
                -0.0000
    Dipole Moment (Debye)
         X       0.0000      Y      -0.0000      Z      -1.4993
       Tot       1.4993
    Quadrupole Moments (Debye-Ang)
        XX     -15.8477     XY       0.0000     YY     -15.8792
        XZ      -0.0000     YZ      -0.0000     ZZ     -22.9160
    Octopole Moments (Debye-Ang^2)
       XXX       0.0000    XXY      -0.0000    XYY      -0.0000
       YYY      -0.0000    XXZ      -7.0580    XYZ      -0.0000
       YYZ      -7.0505    XZZ       0.0000    YZZ      -0.0000
       ZZZ     -31.2705
    Hexadecapole Moments (Debye-Ang^3)
      XXXX     -25.0910   XXXY       0.0000   XXYY      -8.3968
      XYYY       0.0000   YYYY     -25.2901   XXXZ      -0.0000
      XXYZ      -0.0000   XYYZ      -0.0000   YYYZ      -0.0000
      XXZZ     -24.0798   XYZZ      -0.0000   YYZZ     -24.1174
      XZZZ      -0.0000   YZZZ      -0.0000   ZZZZ    -132.1079
 -----------------------------------------------------------------
Archival summary:
1\1\n0034.mhg0\SP\ProcedureUnspecified\BasisUnspecified\l11\yhljason\WedOct2103:29:362020WedOct2103:29:362020\0\\#,ProcedureUnspecified,BasisUnspecified,\\0,1\Al\F,1,1.6544\\\@

 Total job time:  21.40s(wall), 169.16s(cpu) 
 Wed Oct 21 03:29:36 2020

        *************************************************************
        *                                                           *
        *  Thank you very much for using Q-Chem.  Have a nice day.  *
        *                                                           *
        *************************************************************


 
User input: 4 of 7 
 
Q-Chem Developer Version!
                  Welcome to Q-Chem
     A Quantum Leap Into The Future Of Chemistry


 Q-Chem 5.1, Q-Chem, Inc., Pleasanton, CA (2018)

 Yihan Shao,  Zhengting Gan,  E. Epifanovsky,  A. T. B. Gilbert,  M. Wormit,  
 J. Kussmann,  A. W. Lange,  A. Behn,  Jia Deng,  Xintian Feng,  D. Ghosh,  
 M. Goldey,  P. R. Horn,  L. D. Jacobson,  I. Kaliman,  T. Kus,  A. Landau,  
 Jie Liu,  E. I. Proynov,  R. M. Richard,  R. P. Steele,  E. J. Sundstrom,  
 H. L. Woodcock III,  P. M. Zimmerman,  D. Zuev,  B. Albrecht,  E. Alguire,  
 S. A. Baeppler,  D. Barton,  Z. Benda,  Y. A. Bernard,  E. J. Berquist,  
 K. B. Bravaya,  H. Burton,  D. Casanova,  Chun-Min Chang,  Yunqing Chen,  
 A. Chien,  K. D. Closser,  M. P. Coons,  S. Coriani,  S. Dasgupta,  
 A. L. Dempwolff,  M. Diedenhofen,  Hainam Do,  R. G. Edgar,  Po-Tung Fang,  
 S. Faraji,  S. Fatehi,  Qingguo Feng,  K. D. Fenk,  J. Fosso-Tande,  
 Qinghui Ge,  A. Ghysels,  G. Gidofalvi,  J. Gomes,  J. Gonthier,  A. Gunina,  
 D. Hait,  M. W. D. Hanson-Heine,  P. H. P. Harbach,  A. W. Hauser,  
 J. E. Herr,  E. G. Hohenstein,  Z. C. Holden,  Kerwin Hui,  B. C. Huynh,  
 T.-C. Jagau,  Hyunjun Ji,  B. Kaduk,  K. Khistyaev,  Jaehoon Kim,  
 P. Klunzinger,  K. Koh,  D. Kosenkov,  L. Koulias,  T. Kowalczyk,  
 C. M. Krauter,  A. Kunitsa,  Ka Un Lao,  A. Laurent,  K. V. Lawler,  
 Joonho Lee,  D. Lefrancois,  S. Lehtola,  D. S. Levine,  Yi-Pei Li,  
 You-Sheng Lin,  Fenglai Liu,  E. Livshits,  A. Luenser,  P. Manohar,  
 E. Mansoor,  S. F. Manzer,  Shan-Ping Mao,  Yuezhi Mao,  N. Mardirossian,  
 A. V. Marenich,  T. Markovich,  L. A. Martinez-Martinez,  S. A. Maurer,  
 N. J. Mayhall,  S. C. McKenzie,  J.-M. Mewes,  A. F. Morrison,  
 J. W. Mullinax,  K. Nanda,  T. S. Nguyen-Beck,  R. Olivares-Amaya,  
 J. A. Parkhill,  T. M. Perrine,  F. Plasser,  P. Pokhilko,  S. Prager,  
 A. Prociuk,  E. Ramos,  D. R. Rehn,  F. Rob,  M. Schneider,  N. Sergueev,  
 S. M. Sharada,  S. Sharma,  D. W. Small,  T. Stauch,  T. Stein,  
 Yu-Chuan Su,  A. J. W. Thom,  A. Tkatchenko,  T. Tsuchimochi,  N. M. Tubman,  
 L. Vogt,  M. L. Vidal,  O. Vydrov,  M. A. Watson,  J. Wenzel,  
 M. de Wergifosse,  T. A. Wesolowski,  A. White,  J. Witte,  A. Yamada,  
 Jun Yang,  K. Yao,  S. Yeganeh,  S. R. Yost,  Zhi-Qiang You,  A. Zech,  
 Igor Ying Zhang,  Xing Zhang,  Yan Zhao,  Ying Zhu,  B. R. Brooks,  
 G. K. L. Chan,  C. J. Cramer,  M. S. Gordon,  W. J. Hehre,  A. Klamt,  
 M. W. Schmidt,  C. D. Sherrill,  D. G. Truhlar,  A. Aspuru-Guzik,  R. Baer,  
 A. T. Bell,  N. A. Besley,  Jeng-Da Chai,  A. E. DePrince, III,  
 R. A. DiStasio Jr.,  A. Dreuw,  B. D. Dunietz,  T. R. Furlani,  
 Chao-Ping Hsu,  Yousung Jung,  Jing Kong,  D. S. Lambrecht,  WanZhen Liang,  
 C. Ochsenfeld,  V. A. Rassolov,  L. V. Slipchenko,  J. E. Subotnik,  
 T. Van Voorhis,  J. M. Herbert,  A. I. Krylov,  P. M. W. Gill,  M. Head-Gordon

 Contributors to earlier versions of Q-Chem not listed above: 
 R. D. Adamson,  B. Austin,  J. Baker,  G. J. O. Beran,  K. Brandhorst,  
 S. T. Brown,  E. F. C. Byrd,  A. K. Chakraborty,  C.-L. Cheng,  
 Siu Hung Chien,  D. M. Chipman,  D. L. Crittenden,  H. Dachsel,  
 R. J. Doerksen,  A. D. Dutoi,  L. Fusti-Molnar,  W. A. Goddard III,  
 A. Golubeva-Zadorozhnaya,  S. R. Gwaltney,  G. Hawkins,  A. Heyden,  
 S. Hirata,  G. Kedziora,  F. J. Keil,  C. Kelley,  Jihan Kim,  R. A. King,  
 R. Z. Khaliullin,  P. P. Korambath,  W. Kurlancheek,  A. M. Lee,  M. S. Lee,  
 S. V. Levchenko,  Ching Yeh Lin,  D. Liotard,  R. C. Lochan,  I. Lotan,  
 P. E. Maslen,  N. Nair,  D. P. O'Neill,  D. Neuhauser,  E. Neuscamman,  
 C. M. Oana,  R. Olson,  B. Peters,  R. Peverati,  P. A. Pieniazek,  
 Y. M. Rhee,  J. Ritchie,  M. A. Rohrdanz,  E. Rosta,  N. J. Russ,  
 H. F. Schaefer III,  N. E. Schultz,  N. Shenvi,  A. C. Simmonett,  A. Sodt,  
 D. Stuck,  K. S. Thanthiriwatte,  V. Vanovschi,  Tao Wang,  A. Warshel,  
 C. F. Williams,  Q. Wu,  X. Xu,  W. Zhang

 Please cite Q-Chem as follows:
 Y. Shao et al., Mol. Phys. 113, 184-215 (2015)
 DOI: 10.1080/00268976.2014.952696

 Q-Chem 5.1.1 for Intel X86 EM64T Linux

 Parts of Q-Chem use Armadillo 8.300.2 (Tropical Shenanigans).
 http://arma.sourceforge.net/

 Q-Chem begins on Wed Oct 21 03:29:36 2020  

Host: n0034.mhg0
0

     Scratch files written to /local/scratch/users/yhljason/AlF_XYGJOS_aug-cc-pcVTZ.inp20201021032825//
The previous job contains 0 fragments, simply inherited here
Input Ideriv = 2
Curr. Ideriv = -1
Max.  Ideriv = 2

Checking the input file for inconsistencies... 	...done.

--------------------------------------------------------------
User input:
--------------------------------------------------------------
$molecule
read
$end

$rem

jobtype sp
exchange XYGJOS
xc_grid 000099000590
basis aug-cc-pcVTZ
aux_basis rimp2-aug-cc-pVTZ
max_scf_cycles 200
thresh 14
scf_convergence 8
mem_total 128000
cc_memory 96000
cc_backend xm
mem_static 1500
symmetry false
sym_ignore true
scf_guess read
unrestricted false
scf_algorithm gdm
n_frozen_core 0
$end

$multipole_field
YY 0.0001
$end


--------------------------------------------------------------
 ----------------------------------------------------------------
             Standard Nuclear Orientation (Angstroms)
    I     Atom           X                Y                Z
 ----------------------------------------------------------------
    1      Al      0.0000000000     0.0000000000     0.0000000000
    2      F       0.0000000000     0.0000000000     1.6544000000
 ----------------------------------------------------------------
 Nuclear Repulsion Energy =    37.4236784717 hartrees
 There are       11 alpha and       11 beta electrons
 Requested basis set is aug-cc-pCVTZ
 There are 42 shells and 134 basis functions

 Total QAlloc Memory Limit 128000 MB
 Mega-Array Size      1467 MB
 MEM_STATIC part      1500 MB

                       Distance Matrix (Angstroms)
             Al(  1)
   F (  2)  1.654400
 
 Applying Cartesian multipole field
    Component          Value
    ---------          -----
     (0,2,0)        1.00000E-04
 Requested basis set is rimp2-aug-cc-pVTZ
 There are 65 shells and 253 basis functions
 A cutoff of  1.0D-14 yielded    885 shell pairs
 There are      9081 function pairs (     12693 Cartesian)
 
 -------------------------------------------------------
 OpenMP Integral Computing Module                       
 Release: version 1.0, May 2013, Q-Chem Inc. Pittsburgh 
 -------------------------------------------------------
 Integral Job Info:
 Integral job number is                      11
 Integral operator is                         1
 short-range coefficients                     0
 long-range coefficients              100000000
 Omega coefficients                           0
 if combine SR and LR in K                    0
 Integral screening is                        0
 Integral computing path is                   2
 max size of driver memory is            800000
 size of driver memory is                776718
 size of scratch memory is             29531563
 max col of scratch BK array              10000
 max len of scratch array in speh3          662
 max len of scratch index in speh4           32
 max int batch size is                      520
 min int batch size is                       52
 fixed nKL is                                31
 max L of basis functions is                  3
 order of int derivative is                   0
 number of shells is                         42
 number of basis is                         158
 number of cartesian basis is               158
 number of contracted shell pairs           885
 number of primitive shell pairs           5100
 maxK2 (contraction) of shell pair          169
 max number of K2 of shell pair               1
 max number of CS2 of shell pair             98
 max number of PS2 of shell pair           1014
 mem total for path MDJ                  562256
 -------------------------------------------------------
 Smallest overlap matrix eigenvalue = 7.72E-04
 Guess MOs from SCF MO coefficient file
 Reading MOs from coefficient file
 Reading MOs from coefficient file
 A restricted hybrid HF-DFT SCF calculation will be
 performed using Geometric Direct Minimization
 Exchange:     0.2000 Hartree-Fock + 0.0800 Slater + 0.7200 B88
 Correlation:  0.1900 VWN1RPA + 0.8100 LYP
 Using Euler-Maclaurin-Lebedev (99,590) quadrature formula
 SCF converges when RMS gradient is below 1.0E-08
Using Q-Chem read-in guess as SCF_GUESS READ specified.

 using 8 threads for integral computing
 -------------------------------------------------------
 OpenMP Integral computing Module                
 Release: version 2.0, May 2017, Q-Chem Inc. Pleasanton 
 -------------------------------------------------------
TIMEINFO->: J/JK contribution 13.56 sec.
 -------------------------------------------------------
 OpenMP BLAS3 based DFT computing Module                
 Release: version 1.0, May 2013, Q-Chem Inc. Pittsburgh 
 -------------------------------------------------------
 ---------------------------------------
  Cycle       Energy        RMS Gradient
 ---------------------------------------
    1    -342.4149361666      1.15E-03 Normal BFGS step
TIMEINFO->: J/JK contribution 13.39 sec.
    2    -342.4149382515      2.48E-04 Normal BFGS step
TIMEINFO->: J/JK contribution 13.11 sec.
    3    -342.4149382566      2.42E-04 Normal BFGS step
TIMEINFO->: J/JK contribution 13.08 sec.
    4    -342.4149385984      4.28E-05 Normal BFGS step
TIMEINFO->: J/JK contribution 13.07 sec.
    5    -342.4149386047      1.14E-05 Normal BFGS step
TIMEINFO->: J/JK contribution 12.89 sec.
    6    -342.4149386059      1.27E-06 Normal BFGS step
TIMEINFO->: J/JK contribution 12.75 sec.
    7    -342.4149386059      4.37E-07 Normal BFGS step
TIMEINFO->: J/JK contribution 12.48 sec.
    8    -342.4149386059      1.61E-08 Normal BFGS step
TIMEINFO->: J/JK contribution 12.08 sec.
    9    -342.4149386059      4.34E-09 Convergence criterion met
 ---------------------------------------
 B3LYP orbitals are now ready for the XYGJ-OS calculation.
 XYGJ-OS energy = Exch (0.7731 HF  + 0.2269 Slater) + 
                  Corr (0.2754 LYP + 0.2309 VWN1RPA + 0.4364 OS-MP2)
 SCF time:  CPU 141.52 s  wall 17.86 s
 SCF   energy in the final basis set = -341.63199510
 Total energy in the final basis set = -341.63199510
 Entering Scaled Opposite Spin MP2
 NBasAux in rimp2.F =          253

 OS-MP2 job begins now...

 SOS scaling factor =  0.4
 Form (P|Q)**(-1/2)...
 
 Form (ia|P)...
 Form BiaQ = (ia|P)*(P|Q)**(-1/2)...
 Laplace quadrature loop begins
 Laplace point 1: correlation energy     =        -0.2008817397
 Laplace point 2: correlation energy     =        -0.2009725928
 Laplace point 3: correlation energy     =        -0.1345298402
 Laplace point 4: correlation energy     =        -0.0682765337
 Laplace point 5: correlation energy     =        -0.0262784676
 Laplace point 6: correlation energy     =        -0.0068453745
 Laplace point 7: correlation energy     =        -0.0006266452
 
 singles contribution not yet available for XYGJ-OS 
 Total OS-MP2 correlation energy         =        -0.6384111937

 Total XYGJ-OS energy                    =      -341.9105977452
 
 ------------------------------------------------------------------------------
                     SOSMP2        : Timing summary (seconds)
 ------------------------------------------------------------------------------
     job step          cpu (% of tot)      sys (% of tot)     wall (% of tot)
 ------------------------------------------------------------------------------
  Form inv (P|Q)    0.4357E+00 ( 6.9)   0.7000E-05 ( 9.5)   0.5501E-01 ( 6.9)
  Form (ia|P)       0.3865E+01 (61.3)   0.4500E-04 (60.8)   0.4853E+00 (61.2)
  Form  BiaQ        0.2225E+00 ( 3.5)   0.3000E-05 ( 4.1)   0.2793E-01 ( 3.5)
  LP orbitals       0.3028E+00 ( 4.8)   0.5000E-05 ( 6.8)   0.3833E-01 ( 4.8)
  Form  X(PQ)       0.1134E+01 (18.0)   0.1000E-04 (13.5)   0.1432E+00 (18.1)
  Increment EMP2    0.2425E+00 ( 3.8)   0.4000E-05 ( 5.4)   0.3050E-01 ( 3.8)
 ------------------------------------------------------------------------------
   Grand Totals     0.6304E+01          0.7400E-04          0.7930E+00
 ------------------------------------------------------------------------------
 
 --------------------------------------------------------------
 
                    Orbital Energies (a.u.)
 --------------------------------------------------------------
 
 Alpha MOs
 -- Occupied --
-56.042 -24.643  -4.146  -2.699  -2.699  -2.695  -1.144  -0.461
 -0.410  -0.410  -0.258
 -- Virtual --
 -0.059  -0.058  -0.008   0.009   0.021   0.025   0.044   0.056
  0.056   0.066   0.068   0.076   0.182   0.201   0.219   0.220
  0.222   0.222   0.236   0.237   0.243   0.244   0.247   0.263
  0.263   0.264   0.264   0.281   0.388   0.389   0.420   0.559
  0.732   0.732   0.734   0.734   0.794   0.810   0.810   0.860
  0.894   0.894   0.959   0.959   0.975   0.975   0.994   0.994
  1.011   1.152   1.330   1.359   1.360   1.801   1.801   1.980
  2.098   2.601   2.601   2.644   2.644   2.655   2.655   2.816
  2.816   2.834   3.136   3.136   3.424   4.683   4.683   4.717
  4.717   4.781   4.819   4.819   5.240   6.725   6.951   8.303
  8.303   8.380   8.380   8.499   8.499   8.674   8.759   8.759
  8.786   8.786   8.832   8.871   8.871   9.530  18.281  18.281
 18.285  18.285  18.295  18.295  18.339  21.899  21.899  21.967
 21.967  22.145  31.003  31.003  31.217  34.132  34.132  34.354
 34.721  42.921  51.975  51.975  52.004  52.004  52.048 168.208
168.208 168.373 180.691
 --------------------------------------------------------------
 
          Ground-State Mulliken Net Atomic Charges

     Atom                 Charge (a.u.)
  ----------------------------------------
      1 Al                    0.581010
      2 F                    -0.581010
  ----------------------------------------
  Sum of atomic charges =    -0.000000

 -----------------------------------------------------------------
                    Cartesian Multipole Moments
 -----------------------------------------------------------------
    Charge (ESU x 10^10)
                 0.0000
    Dipole Moment (Debye)
         X      -0.0000      Y      -0.0000      Z      -1.5003
       Tot       1.5003
    Quadrupole Moments (Debye-Ang)
        XX     -15.8803     XY       0.0000     YY     -15.9125
        XZ       0.0000     YZ      -0.0000     ZZ     -22.9133
    Octopole Moments (Debye-Ang^2)
       XXX      -0.0000    XXY      -0.0000    XYY      -0.0000
       YYY      -0.0000    XXZ      -7.0534    XYZ      -0.0000
       YYZ      -7.0458    XZZ       0.0000    YZZ      -0.0000
       ZZZ     -31.2636
    Hexadecapole Moments (Debye-Ang^3)
      XXXX     -25.3049   XXXY       0.0000   XXYY      -8.4692
      XYYY       0.0000   YYYY     -25.5107   XXXZ      -0.0000
      XXYZ      -0.0000   XYYZ       0.0000   YYYZ      -0.0000
      XXZZ     -24.1254   XYZZ      -0.0000   YYZZ     -24.1640
      XZZZ       0.0000   YZZZ      -0.0000   ZZZZ    -132.1148
 -----------------------------------------------------------------
Archival summary:
1\1\n0034.mhg0\SP\ProcedureUnspecified\BasisUnspecified\l11\yhljason\WedOct2103:29:552020WedOct2103:29:552020\0\\#,ProcedureUnspecified,BasisUnspecified,\\0,1\Al\F,1,1.6544\\\@

 Total job time:  19.32s(wall), 152.44s(cpu) 
 Wed Oct 21 03:29:55 2020

        *************************************************************
        *                                                           *
        *  Thank you very much for using Q-Chem.  Have a nice day.  *
        *                                                           *
        *************************************************************


 
User input: 5 of 7 
 
Q-Chem Developer Version!
                  Welcome to Q-Chem
     A Quantum Leap Into The Future Of Chemistry


 Q-Chem 5.1, Q-Chem, Inc., Pleasanton, CA (2018)

 Yihan Shao,  Zhengting Gan,  E. Epifanovsky,  A. T. B. Gilbert,  M. Wormit,  
 J. Kussmann,  A. W. Lange,  A. Behn,  Jia Deng,  Xintian Feng,  D. Ghosh,  
 M. Goldey,  P. R. Horn,  L. D. Jacobson,  I. Kaliman,  T. Kus,  A. Landau,  
 Jie Liu,  E. I. Proynov,  R. M. Richard,  R. P. Steele,  E. J. Sundstrom,  
 H. L. Woodcock III,  P. M. Zimmerman,  D. Zuev,  B. Albrecht,  E. Alguire,  
 S. A. Baeppler,  D. Barton,  Z. Benda,  Y. A. Bernard,  E. J. Berquist,  
 K. B. Bravaya,  H. Burton,  D. Casanova,  Chun-Min Chang,  Yunqing Chen,  
 A. Chien,  K. D. Closser,  M. P. Coons,  S. Coriani,  S. Dasgupta,  
 A. L. Dempwolff,  M. Diedenhofen,  Hainam Do,  R. G. Edgar,  Po-Tung Fang,  
 S. Faraji,  S. Fatehi,  Qingguo Feng,  K. D. Fenk,  J. Fosso-Tande,  
 Qinghui Ge,  A. Ghysels,  G. Gidofalvi,  J. Gomes,  J. Gonthier,  A. Gunina,  
 D. Hait,  M. W. D. Hanson-Heine,  P. H. P. Harbach,  A. W. Hauser,  
 J. E. Herr,  E. G. Hohenstein,  Z. C. Holden,  Kerwin Hui,  B. C. Huynh,  
 T.-C. Jagau,  Hyunjun Ji,  B. Kaduk,  K. Khistyaev,  Jaehoon Kim,  
 P. Klunzinger,  K. Koh,  D. Kosenkov,  L. Koulias,  T. Kowalczyk,  
 C. M. Krauter,  A. Kunitsa,  Ka Un Lao,  A. Laurent,  K. V. Lawler,  
 Joonho Lee,  D. Lefrancois,  S. Lehtola,  D. S. Levine,  Yi-Pei Li,  
 You-Sheng Lin,  Fenglai Liu,  E. Livshits,  A. Luenser,  P. Manohar,  
 E. Mansoor,  S. F. Manzer,  Shan-Ping Mao,  Yuezhi Mao,  N. Mardirossian,  
 A. V. Marenich,  T. Markovich,  L. A. Martinez-Martinez,  S. A. Maurer,  
 N. J. Mayhall,  S. C. McKenzie,  J.-M. Mewes,  A. F. Morrison,  
 J. W. Mullinax,  K. Nanda,  T. S. Nguyen-Beck,  R. Olivares-Amaya,  
 J. A. Parkhill,  T. M. Perrine,  F. Plasser,  P. Pokhilko,  S. Prager,  
 A. Prociuk,  E. Ramos,  D. R. Rehn,  F. Rob,  M. Schneider,  N. Sergueev,  
 S. M. Sharada,  S. Sharma,  D. W. Small,  T. Stauch,  T. Stein,  
 Yu-Chuan Su,  A. J. W. Thom,  A. Tkatchenko,  T. Tsuchimochi,  N. M. Tubman,  
 L. Vogt,  M. L. Vidal,  O. Vydrov,  M. A. Watson,  J. Wenzel,  
 M. de Wergifosse,  T. A. Wesolowski,  A. White,  J. Witte,  A. Yamada,  
 Jun Yang,  K. Yao,  S. Yeganeh,  S. R. Yost,  Zhi-Qiang You,  A. Zech,  
 Igor Ying Zhang,  Xing Zhang,  Yan Zhao,  Ying Zhu,  B. R. Brooks,  
 G. K. L. Chan,  C. J. Cramer,  M. S. Gordon,  W. J. Hehre,  A. Klamt,  
 M. W. Schmidt,  C. D. Sherrill,  D. G. Truhlar,  A. Aspuru-Guzik,  R. Baer,  
 A. T. Bell,  N. A. Besley,  Jeng-Da Chai,  A. E. DePrince, III,  
 R. A. DiStasio Jr.,  A. Dreuw,  B. D. Dunietz,  T. R. Furlani,  
 Chao-Ping Hsu,  Yousung Jung,  Jing Kong,  D. S. Lambrecht,  WanZhen Liang,  
 C. Ochsenfeld,  V. A. Rassolov,  L. V. Slipchenko,  J. E. Subotnik,  
 T. Van Voorhis,  J. M. Herbert,  A. I. Krylov,  P. M. W. Gill,  M. Head-Gordon

 Contributors to earlier versions of Q-Chem not listed above: 
 R. D. Adamson,  B. Austin,  J. Baker,  G. J. O. Beran,  K. Brandhorst,  
 S. T. Brown,  E. F. C. Byrd,  A. K. Chakraborty,  C.-L. Cheng,  
 Siu Hung Chien,  D. M. Chipman,  D. L. Crittenden,  H. Dachsel,  
 R. J. Doerksen,  A. D. Dutoi,  L. Fusti-Molnar,  W. A. Goddard III,  
 A. Golubeva-Zadorozhnaya,  S. R. Gwaltney,  G. Hawkins,  A. Heyden,  
 S. Hirata,  G. Kedziora,  F. J. Keil,  C. Kelley,  Jihan Kim,  R. A. King,  
 R. Z. Khaliullin,  P. P. Korambath,  W. Kurlancheek,  A. M. Lee,  M. S. Lee,  
 S. V. Levchenko,  Ching Yeh Lin,  D. Liotard,  R. C. Lochan,  I. Lotan,  
 P. E. Maslen,  N. Nair,  D. P. O'Neill,  D. Neuhauser,  E. Neuscamman,  
 C. M. Oana,  R. Olson,  B. Peters,  R. Peverati,  P. A. Pieniazek,  
 Y. M. Rhee,  J. Ritchie,  M. A. Rohrdanz,  E. Rosta,  N. J. Russ,  
 H. F. Schaefer III,  N. E. Schultz,  N. Shenvi,  A. C. Simmonett,  A. Sodt,  
 D. Stuck,  K. S. Thanthiriwatte,  V. Vanovschi,  Tao Wang,  A. Warshel,  
 C. F. Williams,  Q. Wu,  X. Xu,  W. Zhang

 Please cite Q-Chem as follows:
 Y. Shao et al., Mol. Phys. 113, 184-215 (2015)
 DOI: 10.1080/00268976.2014.952696

 Q-Chem 5.1.1 for Intel X86 EM64T Linux

 Parts of Q-Chem use Armadillo 8.300.2 (Tropical Shenanigans).
 http://arma.sourceforge.net/

 Q-Chem begins on Wed Oct 21 03:29:55 2020  

Host: n0034.mhg0
0

     Scratch files written to /local/scratch/users/yhljason/AlF_XYGJOS_aug-cc-pcVTZ.inp20201021032825//
The previous job contains 0 fragments, simply inherited here
Input Ideriv = 2
Curr. Ideriv = -1
Max.  Ideriv = 2

Checking the input file for inconsistencies... 	...done.

--------------------------------------------------------------
User input:
--------------------------------------------------------------
$molecule
read
$end

$rem

jobtype sp
exchange XYGJOS
xc_grid 000099000590
basis aug-cc-pcVTZ
aux_basis rimp2-aug-cc-pVTZ
max_scf_cycles 200
thresh 14
scf_convergence 8
mem_total 128000
cc_memory 96000
cc_backend xm
mem_static 1500
symmetry false
sym_ignore true
scf_guess read
unrestricted false
scf_algorithm gdm
n_frozen_core 0
$end

$multipole_field
YY -0.0001
$end


--------------------------------------------------------------
 ----------------------------------------------------------------
             Standard Nuclear Orientation (Angstroms)
    I     Atom           X                Y                Z
 ----------------------------------------------------------------
    1      Al      0.0000000000     0.0000000000     0.0000000000
    2      F       0.0000000000     0.0000000000     1.6544000000
 ----------------------------------------------------------------
 Nuclear Repulsion Energy =    37.4236784717 hartrees
 There are       11 alpha and       11 beta electrons
 Requested basis set is aug-cc-pCVTZ
 There are 42 shells and 134 basis functions

 Total QAlloc Memory Limit 128000 MB
 Mega-Array Size      1467 MB
 MEM_STATIC part      1500 MB

                       Distance Matrix (Angstroms)
             Al(  1)
   F (  2)  1.654400
 
 Applying Cartesian multipole field
    Component          Value
    ---------          -----
     (0,2,0)       -1.00000E-04
 Requested basis set is rimp2-aug-cc-pVTZ
 There are 65 shells and 253 basis functions
 A cutoff of  1.0D-14 yielded    885 shell pairs
 There are      9081 function pairs (     12693 Cartesian)
 
 -------------------------------------------------------
 OpenMP Integral Computing Module                       
 Release: version 1.0, May 2013, Q-Chem Inc. Pittsburgh 
 -------------------------------------------------------
 Integral Job Info:
 Integral job number is                      11
 Integral operator is                         1
 short-range coefficients                     0
 long-range coefficients              100000000
 Omega coefficients                           0
 if combine SR and LR in K                    0
 Integral screening is                        0
 Integral computing path is                   2
 max size of driver memory is            800000
 size of driver memory is                776718
 size of scratch memory is             29531563
 max col of scratch BK array              10000
 max len of scratch array in speh3          662
 max len of scratch index in speh4           32
 max int batch size is                      520
 min int batch size is                       52
 fixed nKL is                                31
 max L of basis functions is                  3
 order of int derivative is                   0
 number of shells is                         42
 number of basis is                         158
 number of cartesian basis is               158
 number of contracted shell pairs           885
 number of primitive shell pairs           5100
 maxK2 (contraction) of shell pair          169
 max number of K2 of shell pair               1
 max number of CS2 of shell pair             98
 max number of PS2 of shell pair           1014
 mem total for path MDJ                  562256
 -------------------------------------------------------
 Smallest overlap matrix eigenvalue = 7.72E-04
 Guess MOs from SCF MO coefficient file
 Reading MOs from coefficient file
 Reading MOs from coefficient file
 A restricted hybrid HF-DFT SCF calculation will be
 performed using Geometric Direct Minimization
 Exchange:     0.2000 Hartree-Fock + 0.0800 Slater + 0.7200 B88
 Correlation:  0.1900 VWN1RPA + 0.8100 LYP
 Using Euler-Maclaurin-Lebedev (99,590) quadrature formula
 SCF converges when RMS gradient is below 1.0E-08
Using Q-Chem read-in guess as SCF_GUESS READ specified.

 using 8 threads for integral computing
 -------------------------------------------------------
 OpenMP Integral computing Module                
 Release: version 2.0, May 2017, Q-Chem Inc. Pleasanton 
 -------------------------------------------------------
TIMEINFO->: J/JK contribution 13.61 sec.
 -------------------------------------------------------
 OpenMP BLAS3 based DFT computing Module                
 Release: version 1.0, May 2013, Q-Chem Inc. Pittsburgh 
 -------------------------------------------------------
 ---------------------------------------
  Cycle       Energy        RMS Gradient
 ---------------------------------------
    1    -342.4125724999      1.27E-03 Normal BFGS step
TIMEINFO->: J/JK contribution 13.45 sec.
    2    -342.4125769586      2.49E-04 Normal BFGS step
TIMEINFO->: J/JK contribution 13.08 sec.
    3    -342.4125767628      6.29E-04 Line search: overstep
TIMEINFO->: J/JK contribution 13.06 sec.
    4    -342.4125773018      1.31E-04 Normal BFGS step
TIMEINFO->: J/JK contribution 13.15 sec.
    5    -342.4125773431      3.80E-05 Normal BFGS step
TIMEINFO->: J/JK contribution 12.97 sec.
    6    -342.4125773500      4.70E-06 Normal BFGS step
TIMEINFO->: J/JK contribution 12.88 sec.
    7    -342.4125773501      1.38E-06 Normal BFGS step
TIMEINFO->: J/JK contribution 12.66 sec.
    8    -342.4125773502      1.14E-07 Normal BFGS step
TIMEINFO->: J/JK contribution 12.44 sec.
   GDM::WARNING energy changes are now smaller than effective accuracy.
   GDM::        calculation will continue, but THRESH should be increased
   GDM::        or SCF_CONVERGENCE decreased.
   GDM::        effective_thresh =   1.100000000000000E-010
    9    -342.4125773502      1.89E-08 Normal BFGS step
TIMEINFO->: J/JK contribution 12.04 sec.
   GDM::WARNING energy changes are now smaller than effective accuracy.
   GDM::        calculation will continue, but THRESH should be increased
   GDM::        or SCF_CONVERGENCE decreased.
   GDM::        effective_thresh =   1.100000000000000E-010
   10    -342.4125773502      1.97E-09 Convergence criterion met
 ---------------------------------------
 B3LYP orbitals are now ready for the XYGJ-OS calculation.
 XYGJ-OS energy = Exch (0.7731 HF  + 0.2269 Slater) + 
                  Corr (0.2754 LYP + 0.2309 VWN1RPA + 0.4364 OS-MP2)
 SCF time:  CPU 157.05 s  wall 19.80 s
 SCF   energy in the final basis set = -341.62966959
 Total energy in the final basis set = -341.62966959
 Entering Scaled Opposite Spin MP2
 NBasAux in rimp2.F =          253

 OS-MP2 job begins now...

 SOS scaling factor =  0.4
 Form (P|Q)**(-1/2)...
 
 Form (ia|P)...
 Form BiaQ = (ia|P)*(P|Q)**(-1/2)...
 Laplace quadrature loop begins
 Laplace point 1: correlation energy     =        -0.2008874677
 Laplace point 2: correlation energy     =        -0.2009798551
 Laplace point 3: correlation energy     =        -0.1345234510
 Laplace point 4: correlation energy     =        -0.0682480151
 Laplace point 5: correlation energy     =        -0.0262483123
 Laplace point 6: correlation energy     =        -0.0068286395
 Laplace point 7: correlation energy     =        -0.0006218966
 
 singles contribution not yet available for XYGJ-OS 
 Total OS-MP2 correlation energy         =        -0.6383376373

 Total XYGJ-OS energy                    =      -341.9082401314
 
 ------------------------------------------------------------------------------
                     SOSMP2        : Timing summary (seconds)
 ------------------------------------------------------------------------------
     job step          cpu (% of tot)      sys (% of tot)     wall (% of tot)
 ------------------------------------------------------------------------------
  Form inv (P|Q)    0.4358E+00 ( 6.9)   0.6000E-05 ( 7.9)   0.5484E-01 ( 6.9)
  Form (ia|P)       0.3850E+01 (61.1)   0.4300E-04 (56.6)   0.4836E+00 (61.1)
  Form  BiaQ        0.2226E+00 ( 3.5)   0.2000E-05 ( 2.6)   0.2794E-01 ( 3.5)
  LP orbitals       0.3040E+00 ( 4.8)   0.6000E-05 ( 7.9)   0.3815E-01 ( 4.8)
  Form  X(PQ)       0.1146E+01 (18.2)   0.1500E-04 (19.7)   0.1439E+00 (18.2)
  Increment EMP2    0.2402E+00 ( 3.8)   0.2000E-05 ( 2.6)   0.3021E-01 ( 3.8)
 ------------------------------------------------------------------------------
   Grand Totals     0.6300E+01          0.7600E-04          0.7914E+00
 ------------------------------------------------------------------------------
 
 --------------------------------------------------------------
 
                    Orbital Energies (a.u.)
 --------------------------------------------------------------
 
 Alpha MOs
 -- Occupied --
-56.041 -24.642  -4.146  -2.699  -2.699  -2.695  -1.144  -0.461
 -0.409  -0.409  -0.257
 -- Virtual --
 -0.057  -0.056  -0.005   0.013   0.029   0.033   0.047   0.060
  0.060   0.069   0.071   0.079   0.184   0.204   0.221   0.223
  0.225   0.225   0.239   0.240   0.245   0.245   0.248   0.265
  0.265   0.267   0.267   0.283   0.390   0.390   0.421   0.560
  0.733   0.733   0.735   0.735   0.795   0.811   0.811   0.861
  0.895   0.895   0.960   0.960   0.976   0.976   0.995   0.995
  1.012   1.153   1.331   1.360   1.360   1.802   1.802   1.981
  2.099   2.601   2.601   2.644   2.644   2.656   2.656   2.817
  2.817   2.834   3.136   3.136   3.425   4.683   4.683   4.717
  4.717   4.782   4.820   4.820   5.241   6.725   6.951   8.304
  8.304   8.381   8.381   8.499   8.499   8.674   8.760   8.760
  8.787   8.787   8.832   8.872   8.872   9.531  18.282  18.282
 18.286  18.286  18.296  18.296  18.339  21.900  21.900  21.967
 21.967  22.146  31.003  31.003  31.217  34.133  34.133  34.355
 34.722  42.921  51.976  51.976  52.005  52.005  52.049 168.208
168.208 168.373 180.692
 --------------------------------------------------------------
 
          Ground-State Mulliken Net Atomic Charges

     Atom                 Charge (a.u.)
  ----------------------------------------
      1 Al                    0.581486
      2 F                    -0.581486
  ----------------------------------------
  Sum of atomic charges =    -0.000000

 -----------------------------------------------------------------
                    Cartesian Multipole Moments
 -----------------------------------------------------------------
    Charge (ESU x 10^10)
                -0.0000
    Dipole Moment (Debye)
         X      -0.0000      Y       0.0000      Z      -1.4993
       Tot       1.4993
    Quadrupole Moments (Debye-Ang)
        XX     -15.8792     XY      -0.0000     YY     -15.8477
        XZ      -0.0000     YZ      -0.0000     ZZ     -22.9160
    Octopole Moments (Debye-Ang^2)
       XXX       0.0000    XXY      -0.0000    XYY      -0.0000
       YYY      -0.0000    XXZ      -7.0505    XYZ      -0.0000
       YYZ      -7.0580    XZZ      -0.0000    YZZ      -0.0000
       ZZZ     -31.2705
    Hexadecapole Moments (Debye-Ang^3)
      XXXX     -25.2901   XXXY       0.0000   XXYY      -8.3968
      XYYY       0.0000   YYYY     -25.0910   XXXZ      -0.0000
      XXYZ      -0.0000   XYYZ      -0.0000   YYYZ      -0.0000
      XXZZ     -24.1174   XYZZ      -0.0000   YYZZ     -24.0798
      XZZZ      -0.0000   YZZZ      -0.0000   ZZZZ    -132.1079
 -----------------------------------------------------------------
Archival summary:
1\1\n0034.mhg0\SP\ProcedureUnspecified\BasisUnspecified\l11\yhljason\WedOct2103:30:162020WedOct2103:30:162020\0\\#,ProcedureUnspecified,BasisUnspecified,\\0,1\Al\F,1,1.6544\\\@

 Total job time:  21.23s(wall), 167.90s(cpu) 
 Wed Oct 21 03:30:16 2020

[...]
  Increment EMP2    0.2423E+00 ( 3.8)   0.4000E-05 ( 6.1)   0.3034E-01 ( 3.8)
 ------------------------------------------------------------------------------
   Grand Totals     0.6334E+01          0.6600E-04          0.7951E+00
 ------------------------------------------------------------------------------
 
 --------------------------------------------------------------
 
                    Orbital Energies (a.u.)
 --------------------------------------------------------------
 
 Alpha MOs
 -- Occupied --
-56.042 -24.643  -4.147  -2.700  -2.700  -2.696  -1.145  -0.462
 -0.411  -0.411  -0.258
 -- Virtual --
 -0.058  -0.058  -0.009   0.009   0.025   0.025   0.041   0.058
  0.058   0.066   0.066   0.074   0.179   0.201   0.219   0.219
  0.223   0.223   0.237   0.237   0.243   0.243   0.246   0.263
  0.263   0.265   0.265   0.280   0.388   0.388   0.418   0.558
  0.731   0.731   0.734   0.734   0.793   0.809   0.809   0.858
  0.894   0.894   0.959   0.959   0.975   0.975   0.993   0.993
  1.011   1.151   1.329   1.359   1.359   1.801   1.801   1.979
  2.097   2.600   2.600   2.643   2.643   2.654   2.654   2.815
  2.815   2.833   3.135   3.135   3.423   4.682   4.682   4.716
  4.716   4.780   4.819   4.819   5.240   6.724   6.950   8.302
  8.302   8.379   8.379   8.498   8.498   8.673   8.758   8.758
  8.785   8.785   8.831   8.870   8.870   9.530  18.281  18.281
 18.285  18.285  18.295  18.295  18.339  21.899  21.899  21.967
 21.967  22.145  31.002  31.002  31.216  34.132  34.132  34.353
 34.721  42.920  51.975  51.975  52.003  52.003  52.048 168.207
168.207 168.372 180.690
 --------------------------------------------------------------
 
          Ground-State Mulliken Net Atomic Charges

     Atom                 Charge (a.u.)
  ----------------------------------------
      1 Al                    0.584024
      2 F                    -0.584024
  ----------------------------------------
  Sum of atomic charges =     0.000000

 -----------------------------------------------------------------
                    Cartesian Multipole Moments
 -----------------------------------------------------------------
    Charge (ESU x 10^10)
                -0.0000
    Dipole Moment (Debye)
         X      -0.0000      Y      -0.0000      Z      -1.5001
       Tot       1.5001
    Quadrupole Moments (Debye-Ang)
        XX     -15.8785     XY      -0.0000     YY     -15.8785
        XZ      -0.0000     YZ      -0.0000     ZZ     -22.9759
    Octopole Moments (Debye-Ang^2)
       XXX       0.0000    XXY      -0.0000    XYY      -0.0000
       YYY      -0.0000    XXZ      -7.0472    XYZ      -0.0000
       YYZ      -7.0472    XZZ       0.0000    YZZ      -0.0000
       ZZZ     -31.3087
    Hexadecapole Moments (Debye-Ang^3)
      XXXX     -25.2958   XXXY       0.0000   XXYY      -8.4319
      XYYY       0.0000   YYYY     -25.2958   XXXZ      -0.0000
      XXYZ      -0.0000   XYYZ      -0.0000   YYYZ      -0.0000
      XXZZ     -24.1741   XYZZ      -0.0000   YYZZ     -24.1741
      XZZZ      -0.0000   YZZZ      -0.0000   ZZZZ    -132.5974
 -----------------------------------------------------------------
Archival summary:
1\1\n0034.mhg0\SP\ProcedureUnspecified\BasisUnspecified\l11\yhljason\WedOct2103:30:382020WedOct2103:30:382020\0\\#,ProcedureUnspecified,BasisUnspecified,\\0,1\Al\F,1,1.6544\\\@

 Total job time:  21.12s(wall), 167.19s(cpu) 
 Wed Oct 21 03:30:38 2020

        *************************************************************
        *                                                           *
        *  Thank you very much for using Q-Chem.  Have a nice day.  *
        *                                                           *
        *************************************************************


 
User input: 7 of 7 
 
Q-Chem Developer Version!
                  Welcome to Q-Chem
     A Quantum Leap Into The Future Of Chemistry


 Q-Chem 5.1, Q-Chem, Inc., Pleasanton, CA (2018)

 Yihan Shao,  Zhengting Gan,  E. Epifanovsky,  A. T. B. Gilbert,  M. Wormit,  
 J. Kussmann,  A. W. Lange,  A. Behn,  Jia Deng,  Xintian Feng,  D. Ghosh,  
 M. Goldey,  P. R. Horn,  L. D. Jacobson,  I. Kaliman,  T. Kus,  A. Landau,  
 Jie Liu,  E. I. Proynov,  R. M. Richard,  R. P. Steele,  E. J. Sundstrom,  
 H. L. Woodcock III,  P. M. Zimmerman,  D. Zuev,  B. Albrecht,  E. Alguire,  
 S. A. Baeppler,  D. Barton,  Z. Benda,  Y. A. Bernard,  E. J. Berquist,  
 K. B. Bravaya,  H. Burton,  D. Casanova,  Chun-Min Chang,  Yunqing Chen,  
 A. Chien,  K. D. Closser,  M. P. Coons,  S. Coriani,  S. Dasgupta,  
 A. L. Dempwolff,  M. Diedenhofen,  Hainam Do,  R. G. Edgar,  Po-Tung Fang,  
 S. Faraji,  S. Fatehi,  Qingguo Feng,  K. D. Fenk,  J. Fosso-Tande,  
 Qinghui Ge,  A. Ghysels,  G. Gidofalvi,  J. Gomes,  J. Gonthier,  A. Gunina,  
 D. Hait,  M. W. D. Hanson-Heine,  P. H. P. Harbach,  A. W. Hauser,  
 J. E. Herr,  E. G. Hohenstein,  Z. C. Holden,  Kerwin Hui,  B. C. Huynh,  
 T.-C. Jagau,  Hyunjun Ji,  B. Kaduk,  K. Khistyaev,  Jaehoon Kim,  
 P. Klunzinger,  K. Koh,  D. Kosenkov,  L. Koulias,  T. Kowalczyk,  
 C. M. Krauter,  A. Kunitsa,  Ka Un Lao,  A. Laurent,  K. V. Lawler,  
 Joonho Lee,  D. Lefrancois,  S. Lehtola,  D. S. Levine,  Yi-Pei Li,  
 You-Sheng Lin,  Fenglai Liu,  E. Livshits,  A. Luenser,  P. Manohar,  
 E. Mansoor,  S. F. Manzer,  Shan-Ping Mao,  Yuezhi Mao,  N. Mardirossian,  
 A. V. Marenich,  T. Markovich,  L. A. Martinez-Martinez,  S. A. Maurer,  
 N. J. Mayhall,  S. C. McKenzie,  J.-M. Mewes,  A. F. Morrison,  
 J. W. Mullinax,  K. Nanda,  T. S. Nguyen-Beck,  R. Olivares-Amaya,  
 J. A. Parkhill,  T. M. Perrine,  F. Plasser,  P. Pokhilko,  S. Prager,  
 A. Prociuk,  E. Ramos,  D. R. Rehn,  F. Rob,  M. Schneider,  N. Sergueev,  
 S. M. Sharada,  S. Sharma,  D. W. Small,  T. Stauch,  T. Stein,  
 Yu-Chuan Su,  A. J. W. Thom,  A. Tkatchenko,  T. Tsuchimochi,  N. M. Tubman,  
 L. Vogt,  M. L. Vidal,  O. Vydrov,  M. A. Watson,  J. Wenzel,  
 M. de Wergifosse,  T. A. Wesolowski,  A. White,  J. Witte,  A. Yamada,  
 Jun Yang,  K. Yao,  S. Yeganeh,  S. R. Yost,  Zhi-Qiang You,  A. Zech,  
 Igor Ying Zhang,  Xing Zhang,  Yan Zhao,  Ying Zhu,  B. R. Brooks,  
 G. K. L. Chan,  C. J. Cramer,  M. S. Gordon,  W. J. Hehre,  A. Klamt,  
 M. W. Schmidt,  C. D. Sherrill,  D. G. Truhlar,  A. Aspuru-Guzik,  R. Baer,  
 A. T. Bell,  N. A. Besley,  Jeng-Da Chai,  A. E. DePrince, III,  
 R. A. DiStasio Jr.,  A. Dreuw,  B. D. Dunietz,  T. R. Furlani,  
 Chao-Ping Hsu,  Yousung Jung,  Jing Kong,  D. S. Lambrecht,  WanZhen Liang,  
 C. Ochsenfeld,  V. A. Rassolov,  L. V. Slipchenko,  J. E. Subotnik,  
 T. Van Voorhis,  J. M. Herbert,  A. I. Krylov,  P. M. W. Gill,  M. Head-Gordon

 Contributors to earlier versions of Q-Chem not listed above: 
 R. D. Adamson,  B. Austin,  J. Baker,  G. J. O. Beran,  K. Brandhorst,  
 S. T. Brown,  E. F. C. Byrd,  A. K. Chakraborty,  C.-L. Cheng,  
 Siu Hung Chien,  D. M. Chipman,  D. L. Crittenden,  H. Dachsel,  
 R. J. Doerksen,  A. D. Dutoi,  L. Fusti-Molnar,  W. A. Goddard III,  
 A. Golubeva-Zadorozhnaya,  S. R. Gwaltney,  G. Hawkins,  A. Heyden,  
 S. Hirata,  G. Kedziora,  F. J. Keil,  C. Kelley,  Jihan Kim,  R. A. King,  
 R. Z. Khaliullin,  P. P. Korambath,  W. Kurlancheek,  A. M. Lee,  M. S. Lee,  
 S. V. Levchenko,  Ching Yeh Lin,  D. Liotard,  R. C. Lochan,  I. Lotan,  
 P. E. Maslen,  N. Nair,  D. P. O'Neill,  D. Neuhauser,  E. Neuscamman,  
 C. M. Oana,  R. Olson,  B. Peters,  R. Peverati,  P. A. Pieniazek,  
 Y. M. Rhee,  J. Ritchie,  M. A. Rohrdanz,  E. Rosta,  N. J. Russ,  
 H. F. Schaefer III,  N. E. Schultz,  N. Shenvi,  A. C. Simmonett,  A. Sodt,  
 D. Stuck,  K. S. Thanthiriwatte,  V. Vanovschi,  Tao Wang,  A. Warshel,  
 C. F. Williams,  Q. Wu,  X. Xu,  W. Zhang

 Please cite Q-Chem as follows:
 Y. Shao et al., Mol. Phys. 113, 184-215 (2015)
 DOI: 10.1080/00268976.2014.952696

 Q-Chem 5.1.1 for Intel X86 EM64T Linux

 Parts of Q-Chem use Armadillo 8.300.2 (Tropical Shenanigans).
 http://arma.sourceforge.net/

 Q-Chem begins on Wed Oct 21 03:30:38 2020  

Host: n0034.mhg0
0

     Scratch files written to /local/scratch/users/yhljason/AlF_XYGJOS_aug-cc-pcVTZ.inp20201021032825//
The previous job contains 0 fragments, simply inherited here
Input Ideriv = 2
Curr. Ideriv = -1
Max.  Ideriv = 2

Checking the input file for inconsistencies... 	...done.

--------------------------------------------------------------
User input:
--------------------------------------------------------------
$molecule
read
$end

$rem

jobtype sp
exchange XYGJOS
xc_grid 000099000590
basis aug-cc-pcVTZ
aux_basis rimp2-aug-cc-pVTZ
max_scf_cycles 200
thresh 14
scf_convergence 8
mem_total 128000
cc_memory 96000
cc_backend xm
mem_static 1500
symmetry false
sym_ignore true
scf_guess read
unrestricted false
scf_algorithm gdm
n_frozen_core 0
$end

$multipole_field
ZZ -0.0001
$end

--------------------------------------------------------------
 ----------------------------------------------------------------
             Standard Nuclear Orientation (Angstroms)
    I     Atom           X                Y                Z
 ----------------------------------------------------------------
    1      Al      0.0000000000     0.0000000000     0.0000000000
    2      F       0.0000000000     0.0000000000     1.6544000000
 ----------------------------------------------------------------
 Nuclear Repulsion Energy =    37.4236784717 hartrees
 There are       11 alpha and       11 beta electrons
 Requested basis set is aug-cc-pCVTZ
 There are 42 shells and 134 basis functions

 Total QAlloc Memory Limit 128000 MB
 Mega-Array Size      1467 MB
 MEM_STATIC part      1500 MB

                       Distance Matrix (Angstroms)
             Al(  1)
   F (  2)  1.654400
 
 Applying Cartesian multipole field
    Component          Value
    ---------          -----
     (0,0,2)       -1.00000E-04
 Nucleus-field energy     =    -0.0087967305 hartrees
 Requested basis set is rimp2-aug-cc-pVTZ
 There are 65 shells and 253 basis functions
 A cutoff of  1.0D-14 yielded    885 shell pairs
 There are      9081 function pairs (     12693 Cartesian)
 
 -------------------------------------------------------
 OpenMP Integral Computing Module                       
 Release: version 1.0, May 2013, Q-Chem Inc. Pittsburgh 
 -------------------------------------------------------
 Integral Job Info:
 Integral job number is                      11
 Integral operator is                         1
 short-range coefficients                     0
 long-range coefficients              100000000
 Omega coefficients                           0
 if combine SR and LR in K                    0
 Integral screening is                        0
 Integral computing path is                   2
 max size of driver memory is            800000
 size of driver memory is                776718
 size of scratch memory is             29531563
 max col of scratch BK array              10000
 max len of scratch array in speh3          662
 max len of scratch index in speh4           32
 max int batch size is                      520
 min int batch size is                       52
 fixed nKL is                                31
 max L of basis functions is                  3
 order of int derivative is                   0
 number of shells is                         42
 number of basis is                         158
 number of cartesian basis is               158
 number of contracted shell pairs           885
 number of primitive shell pairs           5100
 maxK2 (contraction) of shell pair          169
 max number of K2 of shell pair               1
 max number of CS2 of shell pair             98
 max number of PS2 of shell pair           1014
 mem total for path MDJ                  562256
 -------------------------------------------------------
 Smallest overlap matrix eigenvalue = 7.72E-04
 Guess MOs from SCF MO coefficient file
 Reading MOs from coefficient file
 Reading MOs from coefficient file
 A restricted hybrid HF-DFT SCF calculation will be
 performed using Geometric Direct Minimization
 Exchange:     0.2000 Hartree-Fock + 0.0800 Slater + 0.7200 B88
 Correlation:  0.1900 VWN1RPA + 0.8100 LYP
 Using Euler-Maclaurin-Lebedev (99,590) quadrature formula
 SCF converges when RMS gradient is below 1.0E-08
Using Q-Chem read-in guess as SCF_GUESS READ specified.

 using 8 threads for integral computing
 -------------------------------------------------------
 OpenMP Integral computing Module                
 Release: version 2.0, May 2017, Q-Chem Inc. Pleasanton 
 -------------------------------------------------------
TIMEINFO->: J/JK contribution 13.57 sec.
 -------------------------------------------------------
 OpenMP BLAS3 based DFT computing Module                
 Release: version 1.0, May 2013, Q-Chem Inc. Pittsburgh 
 -------------------------------------------------------
 ---------------------------------------
  Cycle       Energy        RMS Gradient
 ---------------------------------------
    1    -342.4120462946      1.04E-03 Normal BFGS step
TIMEINFO->: J/JK contribution 13.44 sec.
    2    -342.4120545429      3.04E-04 Normal BFGS step
TIMEINFO->: J/JK contribution 13.16 sec.
    3    -342.4120550466      2.34E-04 Normal BFGS step
TIMEINFO->: J/JK contribution 13.09 sec.
    4    -342.4120552630      1.17E-04 Normal BFGS step
TIMEINFO->: J/JK contribution 13.14 sec.
    5    -342.4120553739      1.97E-05 Normal BFGS step
TIMEINFO->: J/JK contribution 12.97 sec.
    6    -342.4120553787      5.51E-06 Normal BFGS step
TIMEINFO->: J/JK contribution 12.89 sec.
    7    -342.4120553790      9.88E-07 Normal BFGS step
TIMEINFO->: J/JK contribution 12.73 sec.
    8    -342.4120553790      2.51E-07 Normal BFGS step
TIMEINFO->: J/JK contribution 12.52 sec.
    9    -342.4120553790      3.92E-08 Normal BFGS step
TIMEINFO->: J/JK contribution 11.94 sec.
   GDM::WARNING energy changes are now smaller than effective accuracy.
   GDM::        calculation will continue, but THRESH should be increased
   GDM::        or SCF_CONVERGENCE decreased.
   GDM::        effective_thresh =   3.540907497767698E-009
   10    -342.4120553790      7.99E-09 Convergence criterion met
 ---------------------------------------
 B3LYP orbitals are now ready for the XYGJ-OS calculation.
 XYGJ-OS energy = Exch (0.7731 HF  + 0.2269 Slater) + 
                  Corr (0.2754 LYP + 0.2309 VWN1RPA + 0.4364 OS-MP2)
 SCF time:  CPU 157.09 s  wall 19.81 s
 SCF   energy in the final basis set = -341.62908466
 Total energy in the final basis set = -341.62908466
 Entering Scaled Opposite Spin MP2
 NBasAux in rimp2.F =          253

 OS-MP2 job begins now...

 SOS scaling factor =  0.4
 Form (P|Q)**(-1/2)...
 
 Form (ia|P)...
 Form BiaQ = (ia|P)*(P|Q)**(-1/2)...
 Laplace quadrature loop begins
 Laplace point 1: correlation energy     =        -0.2008874495
 Laplace point 2: correlation energy     =        -0.2009836530
 Laplace point 3: correlation energy     =        -0.1345440548
 Laplace point 4: correlation energy     =        -0.0682933251
 Laplace point 5: correlation energy     =        -0.0262933355
 Laplace point 6: correlation energy     =        -0.0068480344
 Laplace point 7: correlation energy     =        -0.0006255967
 
 singles contribution not yet available for XYGJ-OS 
 Total OS-MP2 correlation energy         =        -0.6384754490

 Total XYGJ-OS energy                    =      -341.9077153452
 
 ------------------------------------------------------------------------------
                     SOSMP2        : Timing summary (seconds)
 ------------------------------------------------------------------------------
     job step          cpu (% of tot)      sys (% of tot)     wall (% of tot)
 ------------------------------------------------------------------------------
  Form inv (P|Q)    0.4337E+00 ( 6.9)   0.8000E-05 (11.6)   0.5459E-01 ( 6.9)
  Form (ia|P)       0.3869E+01 (61.5)   0.4000E-04 (58.0)   0.4857E+00 (61.4)
  Form  BiaQ        0.2218E+00 ( 3.5)   0.2000E-05 ( 2.9)   0.2785E-01 ( 3.5)
  LP orbitals       0.3057E+00 ( 4.9)   0.5000E-05 ( 7.2)   0.3839E-01 ( 4.9)
  Form  X(PQ)       0.1142E+01 (18.2)   0.1200E-04 (17.4)   0.1433E+00 (18.1)
  Increment EMP2    0.2189E+00 ( 3.5)   0.2000E-05 ( 2.9)   0.2922E-01 ( 3.7)
 ------------------------------------------------------------------------------
   Grand Totals     0.6287E+01          0.6900E-04          0.7914E+00
 ------------------------------------------------------------------------------
 
 --------------------------------------------------------------
 
                    Orbital Energies (a.u.)
 --------------------------------------------------------------
 
 Alpha MOs
 -- Occupied --
-56.041 -24.641  -4.145  -2.698  -2.698  -2.694  -1.143  -0.460
 -0.408  -0.408  -0.257
 -- Virtual --
 -0.057  -0.057  -0.004   0.013   0.029   0.029   0.051   0.059
  0.059   0.071   0.071   0.081   0.186   0.204   0.222   0.222
  0.224   0.224   0.239   0.239   0.245   0.245   0.249   0.265
  0.265   0.266   0.266   0.285   0.391   0.391   0.423   0.561
  0.733   0.733   0.735   0.735   0.795   0.811   0.811   0.862
  0.895   0.895   0.961   0.961   0.977   0.977   0.996   0.996
  1.013   1.154   1.332   1.361   1.361   1.802   1.802   1.981
  2.099   2.602   2.602   2.645   2.645   2.657   2.657   2.818
  2.818   2.835   3.137   3.137   3.425   4.683   4.683   4.718
  4.718   4.783   4.820   4.820   5.241   6.726   6.952   8.304
  8.304   8.382   8.382   8.500   8.500   8.675   8.760   8.760
  8.787   8.787   8.833   8.872   8.872   9.531  18.282  18.282
 18.286  18.286  18.296  18.296  18.340  21.900  21.900  21.968
 21.968  22.146  31.004  31.004  31.218  34.133  34.133  34.355
 34.722  42.922  51.977  51.977  52.006  52.006  52.050 168.209
168.209 168.374 180.692
 --------------------------------------------------------------
 
          Ground-State Mulliken Net Atomic Charges

     Atom                 Charge (a.u.)
  ----------------------------------------
      1 Al                    0.578459
      2 F                    -0.578459
  ----------------------------------------
  Sum of atomic charges =    -0.000000

 -----------------------------------------------------------------
                    Cartesian Multipole Moments
 -----------------------------------------------------------------
    Charge (ESU x 10^10)
                -0.0000
    Dipole Moment (Debye)
         X      -0.0000      Y      -0.0000      Z      -1.4994
       Tot       1.4994
    Quadrupole Moments (Debye-Ang)
        XX     -15.8811     XY       0.0000     YY     -15.8811
        XZ       0.0000     YZ      -0.0000     ZZ     -22.8542
    Octopole Moments (Debye-Ang^2)
       XXX      -0.0000    XXY      -0.0000    XYY      -0.0000
       YYY      -0.0000    XXZ      -7.0566    XYZ       0.0000
       YYZ      -7.0566    XZZ       0.0000    YZZ      -0.0000
       ZZZ     -31.2247
    Hexadecapole Moments (Debye-Ang^3)
      XXXX     -25.2992   XXXY       0.0000   XXYY      -8.4331
      XYYY       0.0000   YYYY     -25.2992   XXXZ      -0.0000
      XXYZ      -0.0000   XYYZ       0.0000   YYYZ      -0.0000
      XXZZ     -24.0699   XYZZ       0.0000   YYZZ     -24.0699
      XZZZ       0.0000   YZZZ      -0.0000   ZZZZ    -131.6345
 -----------------------------------------------------------------
Archival summary:
1\1\n0034.mhg0\SP\ProcedureUnspecified\BasisUnspecified\l11\yhljason\WedOct2103:30:592020WedOct2103:30:592020\0\\#,ProcedureUnspecified,BasisUnspecified,\\0,1\Al\F,1,1.6544\\\@

 Total job time:  21.26s(wall), 168.25s(cpu) 
 Wed Oct 21 03:30:59 2020

        *************************************************************
        *                                                           *
        *  Thank you very much for using Q-Chem.  Have a nice day.  *
        *                                                           *
        *************************************************************


