Q-Chem Developer Version!
                  Welcome to Q-Chem
     A Quantum Leap Into The Future Of Chemistry


 Q-Chem 5.1, Q-Chem, Inc., Pleasanton, CA (2018)

 Yihan Shao,  Zhengting Gan,  E. Epifanovsky,  A. T. B. Gilbert,  M. Wormit,  
 J. Kussmann,  A. W. Lange,  A. Behn,  Jia Deng,  Xintian Feng,  D. Ghosh,  
 M. Goldey,  P. R. Horn,  L. D. Jacobson,  I. Kaliman,  T. Kus,  A. Landau,  
 Jie Liu,  E. I. Proynov,  R. M. Richard,  R. P. Steele,  E. J. Sundstrom,  
 H. L. Woodcock III,  P. M. Zimmerman,  D. Zuev,  B. Albrecht,  E. Alguire,  
 S. A. Baeppler,  D. Barton,  Z. Benda,  Y. A. Bernard,  E. J. Berquist,  
 K. B. Bravaya,  H. Burton,  D. Casanova,  Chun-Min Chang,  Yunqing Chen,  
 A. Chien,  K. D. Closser,  M. P. Coons,  S. Coriani,  S. Dasgupta,  
 A. L. Dempwolff,  M. Diedenhofen,  Hainam Do,  R. G. Edgar,  Po-Tung Fang,  
 S. Faraji,  S. Fatehi,  Qingguo Feng,  K. D. Fenk,  J. Fosso-Tande,  
 Qinghui Ge,  A. Ghysels,  G. Gidofalvi,  J. Gomes,  J. Gonthier,  A. Gunina,  
 D. Hait,  M. W. D. Hanson-Heine,  P. H. P. Harbach,  A. W. Hauser,  
 J. E. Herr,  E. G. Hohenstein,  Z. C. Holden,  Kerwin Hui,  B. C. Huynh,  
 T.-C. Jagau,  Hyunjun Ji,  B. Kaduk,  K. Khistyaev,  Jaehoon Kim,  
 P. Klunzinger,  K. Koh,  D. Kosenkov,  L. Koulias,  T. Kowalczyk,  
 C. M. Krauter,  A. Kunitsa,  Ka Un Lao,  A. Laurent,  K. V. Lawler,  
 Joonho Lee,  D. Lefrancois,  S. Lehtola,  D. S. Levine,  Yi-Pei Li,  
 You-Sheng Lin,  Fenglai Liu,  E. Livshits,  A. Luenser,  P. Manohar,  
 E. Mansoor,  S. F. Manzer,  Shan-Ping Mao,  Yuezhi Mao,  N. Mardirossian,  
 A. V. Marenich,  T. Markovich,  L. A. Martinez-Martinez,  S. A. Maurer,  
 N. J. Mayhall,  S. C. McKenzie,  J.-M. Mewes,  A. F. Morrison,  
 J. W. Mullinax,  K. Nanda,  T. S. Nguyen-Beck,  R. Olivares-Amaya,  
 J. A. Parkhill,  T. M. Perrine,  F. Plasser,  P. Pokhilko,  S. Prager,  
 A. Prociuk,  E. Ramos,  D. R. Rehn,  F. Rob,  M. Schneider,  N. Sergueev,  
 S. M. Sharada,  S. Sharma,  D. W. Small,  T. Stauch,  T. Stein,  
 Yu-Chuan Su,  A. J. W. Thom,  A. Tkatchenko,  T. Tsuchimochi,  N. M. Tubman,  
 L. Vogt,  M. L. Vidal,  O. Vydrov,  M. A. Watson,  J. Wenzel,  
 M. de Wergifosse,  T. A. Wesolowski,  A. White,  J. Witte,  A. Yamada,  
 Jun Yang,  K. Yao,  S. Yeganeh,  S. R. Yost,  Zhi-Qiang You,  A. Zech,  
 Igor Ying Zhang,  Xing Zhang,  Yan Zhao,  Ying Zhu,  B. R. Brooks,  
 G. K. L. Chan,  C. J. Cramer,  M. S. Gordon,  W. J. Hehre,  A. Klamt,  
 M. W. Schmidt,  C. D. Sherrill,  D. G. Truhlar,  A. Aspuru-Guzik,  R. Baer,  
 A. T. Bell,  N. A. Besley,  Jeng-Da Chai,  A. E. DePrince, III,  
 R. A. DiStasio Jr.,  A. Dreuw,  B. D. Dunietz,  T. R. Furlani,  
 Chao-Ping Hsu,  Yousung Jung,  Jing Kong,  D. S. Lambrecht,  WanZhen Liang,  
 C. Ochsenfeld,  V. A. Rassolov,  L. V. Slipchenko,  J. E. Subotnik,  
 T. Van Voorhis,  J. M. Herbert,  A. I. Krylov,  P. M. W. Gill,  M. Head-Gordon

 Contributors to earlier versions of Q-Chem not listed above: 
 R. D. Adamson,  B. Austin,  J. Baker,  G. J. O. Beran,  K. Brandhorst,  
 S. T. Brown,  E. F. C. Byrd,  A. K. Chakraborty,  C.-L. Cheng,  
 Siu Hung Chien,  D. M. Chipman,  D. L. Crittenden,  H. Dachsel,  
 R. J. Doerksen,  A. D. Dutoi,  L. Fusti-Molnar,  W. A. Goddard III,  
 A. Golubeva-Zadorozhnaya,  S. R. Gwaltney,  G. Hawkins,  A. Heyden,  
 S. Hirata,  G. Kedziora,  F. J. Keil,  C. Kelley,  Jihan Kim,  R. A. King,  
 R. Z. Khaliullin,  P. P. Korambath,  W. Kurlancheek,  A. M. Lee,  M. S. Lee,  
 S. V. Levchenko,  Ching Yeh Lin,  D. Liotard,  R. C. Lochan,  I. Lotan,  
 P. E. Maslen,  N. Nair,  D. P. O'Neill,  D. Neuhauser,  E. Neuscamman,  
 C. M. Oana,  R. Olson,  B. Peters,  R. Peverati,  P. A. Pieniazek,  
 Y. M. Rhee,  J. Ritchie,  M. A. Rohrdanz,  E. Rosta,  N. J. Russ,  
 H. F. Schaefer III,  N. E. Schultz,  N. Shenvi,  A. C. Simmonett,  A. Sodt,  
 D. Stuck,  K. S. Thanthiriwatte,  V. Vanovschi,  Tao Wang,  A. Warshel,  
 C. F. Williams,  Q. Wu,  X. Xu,  W. Zhang

 Please cite Q-Chem as follows:
 Y. Shao et al., Mol. Phys. 113, 184-215 (2015)
 DOI: 10.1080/00268976.2014.952696

 Q-Chem 5.1.1 for Intel X86 EM64T Linux

 Parts of Q-Chem use Armadillo 8.300.2 (Tropical Shenanigans).
 http://arma.sourceforge.net/

 Q-Chem begins on Fri Oct 23 19:43:12 2020  

Host: n0035.mhg0
0

     Scratch files written to /local/scratch/users/yhljason/BeH_XYGJOS_aug-cc-pcV5Z.inp20201023194308//
Input Ideriv = 1
Curr. Ideriv = -1
Max.  Ideriv = 1

Checking the input file for inconsistencies... 	...done.

--------------------------------------------------------------
User input:
--------------------------------------------------------------
$molecule
0 2
H 0 0 0
Be 0 0 1.3426
$end

$rem
jobtype sp
exchange XYGJOS
xc_grid 000099000590
basis gen
aux_basis rimp2-cc-pVQZ
max_scf_cycles 200
thresh 14
scf_convergence 8
scf_algorithm gdm
symmetry false
sym_ignore true
unrestricted false
gen_scfman false
internal_stability_iter 15
internal_stability_davidson_iter 200
mem_total 128000
cc_memory 96000
cc_backend xm
mem_static 1500
n_frozen_core 1000
$end

$basis
****
H
aug-cc-pCV5Z
****
Be     0
S   14   1.00
  54620.0000000              1.8000000e-05
   8180.0000000              1.3800000e-04
   1862.0000000              7.2300000e-04
    527.3000000              3.0390000e-03
    172.0000000              1.0908000e-02
     62.1000000              3.4035000e-02
     24.2100000              9.1193000e-02
      9.9930000              1.9926800e-01
      4.3050000              3.2935500e-01
      1.9210000              3.4048900e-01
      0.8663000              1.4374000e-01
      0.2475000              6.5170000e-03
      0.1009000             -1.8650000e-03
      0.0412900              4.8000000e-04
S   14   1.00
  54620.0000000             -3.0000000e-06
   8180.0000000             -2.5000000e-05
   1862.0000000             -1.3100000e-04
    527.3000000             -5.5800000e-04
    172.0000000             -1.9880000e-03
     62.1000000             -6.3700000e-03
     24.2100000             -1.7217000e-02
      9.9930000             -4.0858000e-02
      4.3050000             -7.4237000e-02
      1.9210000             -1.1923400e-01
      0.8663000             -8.7777000e-02
      0.2475000              2.7878800e-01
      0.1009000              5.8349900e-01
      0.0412900              2.6900700e-01
S   1   1.00
      0.8663000              1.0000000e+00
S   1   1.00
      0.2475000              1.0000000e+00
S   1   1.00
      0.1009000              1.0000000e+00
S   1   1.00
      0.0412900              1.0000000e+00
P   8   1.00
     43.7500000              6.3300000e-04
     10.3300000              4.8080000e-03
      3.2260000              2.0527000e-02
      1.1270000              6.7816000e-02
      0.4334000              1.9286800e-01
      0.1808000              3.7869200e-01
      0.0782700              4.0057400e-01
      0.0337200              1.3806700e-01
P   1   1.00
      0.4334000              1.0000000e+00
P   1   1.00
      0.1808000              1.0000000e+00
P   1   1.00
      0.0782700              1.0000000e+00
P   1   1.00
      0.0337200              1.0000000e+00
D   1   1.00
      1.7175000              1.0000000e+00
D   1   1.00
      0.7646000              1.0000000e+00
D   1   1.00
      0.3404000              1.0000000e+00
D   1   1.00
      0.1515000              1.0000000e+00
F   1   1.00
      0.6127000              1.0000000e+00
F   1   1.00
      0.3568000              1.0000000e+00
F   1   1.00
      0.2078000              1.0000000e+00
G   1   1.00
      0.5980000              1.0000000e+00
G   1   1.00
      0.3183000              1.0000000e+00
H   1   1.00
      0.5142000              1.0000000e+00
S   1   1.00
     51.1620000              1.0000000        
S   1   1.00
     23.1700000              1.0000000        
S   1   1.00
     10.4930000              1.0000000        
S   1   1.00
      4.7521000              1.0000000       
P   1   1.00
     56.4100000              1.0000000
P   1   1.00
     22.0430000              1.0000000
P   1   1.00
      8.6139000              1.0000000
P   1   1.00
      3.3661000              1.0000000
D   1   1.00
     41.4200000              1.0000000        
D   1   1.00
     15.6510000              1.0000000        
D   1   1.00
      5.9140000              1.0000000        
F   1   1.00
     24.1030000              1.0000000        
F   1   1.00
      7.6834000              1.0000000        
G   1   1.00
     15.8210000              1.0000000        
S   1   1.00
      0.0128000              1.0000000        
P   1   1.00
      0.0076000              1.0000000        
D   1   1.00
      0.0428000              1.0000000        
F   1   1.00
      0.0719000              1.0000000        
G   1   1.00
      0.0979000              1.0000000        
H   1   1.00
      0.2033000              1.0000000        
****
$end

--------------------------------------------------------------
 ----------------------------------------------------------------
             Standard Nuclear Orientation (Angstroms)
    I     Atom           X                Y                Z
 ----------------------------------------------------------------
    1      H       0.0000000000     0.0000000000     0.0000000000
    2      Be      0.0000000000     0.0000000000     1.3426000000
 ----------------------------------------------------------------
 Nuclear Repulsion Energy =     1.5765744400 hartrees
 There are        3 alpha and        2 beta electrons

 Q-Chem warning in module forms1/BasisType.C, line 1703:

 Setting pure/cartesian flag to 2111 for general basis


 Requested basis set is non-standard
 There are 61 shells and 281 basis functions

 Total QAlloc Memory Limit 128000 MB
 Mega-Array Size      1467 MB
 MEM_STATIC part      1500 MB

                       Distance Matrix (Angstroms)
             H (  1)
   Be(  2)  1.342600
 
 Requested basis set is rimp2-cc-pVQZ
 There are 45 shells and 197 basis functions
 A cutoff of  1.0D-14 yielded   1891 shell pairs
 There are     40611 function pairs (     65226 Cartesian)
 
 -------------------------------------------------------
 OpenMP Integral Computing Module                       
 Release: version 1.0, May 2013, Q-Chem Inc. Pittsburgh 
 -------------------------------------------------------
 Integral Job Info:
 Integral job number is                      11
 Integral operator is                         1
 short-range coefficients                     0
 long-range coefficients              100000000
 Omega coefficients                           0
 if combine SR and LR in K                    0
 Integral screening is                        0
 Integral computing path is                   2
 max size of driver memory is           6400000
 size of driver memory is               5498286
 size of scratch memory is             28716118
 max col of scratch BK array             194481
 max len of scratch array in speh3         5572
 max len of scratch index in speh4           72
 max int batch size is                      520
 min int batch size is                       52
 fixed nKL is                                14
 max L of basis functions is                  5
 order of int derivative is                   0
 number of shells is                         61
 number of basis is                         356
 number of cartesian basis is               356
 number of contracted shell pairs          1891
 number of primitive shell pairs           4883
 maxK2 (contraction) of shell pair          196
 max number of K2 of shell pair               1
 max number of CS2 of shell pair            198
 max number of PS2 of shell pair            588
 mem total for path MDJ                  871004
 -------------------------------------------------------
 Smallest overlap matrix eigenvalue = 8.15E-07
 Linear dependence detected in AO basis
 Number of orthogonalized atomic orbitals = 280
 Maximum deviation from orthogonality = 3.200E-11

 Scale SEOQF with 1.000000e-01/1.000000e-01/1.000000e-02

 Standard Electronic Orientation quadrupole field applied
 Guess MOs from core Hamiltonian diagonalization
 A restricted hybrid HF-DFT SCF calculation will be
 performed using Geometric Direct Minimization
 Exchange:     0.2000 Hartree-Fock + 0.0800 Slater + 0.7200 B88
 Correlation:  0.1900 VWN1RPA + 0.8100 LYP
 Using Euler-Maclaurin-Lebedev (99,590) quadrature formula
 SCF converges when RMS gradient is below 1.0E-08
 using 8 threads for integral computing
 -------------------------------------------------------
 OpenMP Integral computing Module                
 Release: version 2.0, May 2017, Q-Chem Inc. Pleasanton 
 -------------------------------------------------------
 LTot/LBra/LKet=          20          10          10
 LTot/LBra/LKet=          19           9          10
 LTot/LBra/LKet=          19           9          10
 LTot/LBra/LKet=          18           9           9

 Q-Chem warning:

 in GenH1, ket side, handled with new code


 Q-Chem warning:

 in GenH1, ket side, handled with new code

 LTot/LBra/LKet=          19           9          10
 LTot/LBra/LKet=          20          10          10

 Q-Chem warning:

 in GenH1, ket side, handled with new code


 Q-Chem warning:

 in GenH1, ket side, handled with new code


 Q-Chem warning:

 in GenH1, ket side, handled with new code

 LTot/LBra/LKet=          19           9          10
 LTot/LBra/LKet=          20          10          10

 Q-Chem warning:

 in GenH1, ket side, handled with new code


 Q-Chem warning:

 in GenH1, ket side, handled with new code


 Q-Chem warning:

 in GenH1, ket side, handled with new code

 LTot/LBra/LBra=          18           9           9

 Q-Chem warning:

 in GenH1, bra side, handled with new code

TIMEINFO->: J/JK contribution 334.38 sec.
 -------------------------------------------------------
 OpenMP BLAS3 based DFT computing Module                
 Release: version 1.0, May 2013, Q-Chem Inc. Pittsburgh 
 -------------------------------------------------------
 ---------------------------------------
  Cycle       Energy        RMS Gradient
 ---------------------------------------
    1     -13.2344230072      9.11E-01 Descent step
TIMEINFO->: J/JK contribution 335.58 sec.
    2     -14.0319023007      6.11E-01 Descent step
TIMEINFO->: J/JK contribution 337.37 sec.
    3     -14.6039585605      6.98E-01 Descent step
TIMEINFO->: J/JK contribution 336.27 sec.
    4     -14.9882180030      2.87E-01 Descent step
TIMEINFO->: J/JK contribution 335.55 sec.
    5     -15.1463524986      7.70E-02 Normal BFGS step
TIMEINFO->: J/JK contribution 334.13 sec.
    6     -15.1767165944      6.98E-02 Normal BFGS step
TIMEINFO->: J/JK contribution 337.10 sec.
    7     -15.1806155221      2.67E-02 Normal BFGS step
TIMEINFO->: J/JK contribution 333.62 sec.
    8     -15.1810521799      8.30E-03 Normal BFGS step
TIMEINFO->: J/JK contribution 333.89 sec.
    9     -15.1811029199      2.05E-03 Normal BFGS step
TIMEINFO->: J/JK contribution 334.45 sec.
   10     -15.1811083891      3.48E-04 Normal BFGS step
TIMEINFO->: J/JK contribution 333.09 sec.
   11     -15.1811085797      1.21E-04 Normal BFGS step
TIMEINFO->: J/JK contribution 332.29 sec.
   12     -15.1811086013      4.23E-05 Normal BFGS step
TIMEINFO->: J/JK contribution 331.49 sec.
   13     -15.1811086024      1.35E-05 Normal BFGS step
TIMEINFO->: J/JK contribution 329.79 sec.
   14     -15.1811086027      1.15E-05 Normal BFGS step
TIMEINFO->: J/JK contribution 329.53 sec.
   15     -15.1811086029      1.17E-05 Normal BFGS step
TIMEINFO->: J/JK contribution 334.62 sec.
   16     -15.1811086049      2.93E-05 Normal BFGS step
TIMEINFO->: J/JK contribution 333.36 sec.
   17     -15.1811086175      1.53E-04 Normal BFGS step
TIMEINFO->: J/JK contribution 335.67 sec.
   18     -15.1810736955      5.70E-03 Line search: overstep
TIMEINFO->: J/JK contribution 334.76 sec.
   19     -15.1811086113      6.95E-04 Line search: overstep
TIMEINFO->: J/JK contribution 333.19 sec.
   20     -15.1811086428      4.47E-04 Normal BFGS step
TIMEINFO->: J/JK contribution 332.52 sec.
   21     -15.1811086555      7.18E-04 Normal BFGS step
TIMEINFO->: J/JK contribution 332.48 sec.
   22     -15.1811086988      6.28E-04 Line search: understep
TIMEINFO->: J/JK contribution 333.54 sec.
   23     -15.1811090425      6.48E-04 Normal BFGS step
TIMEINFO->: J/JK contribution 334.30 sec.
   24     -15.1811010502      1.78E-03 Line search: overstep
TIMEINFO->: J/JK contribution 333.93 sec.
   25     -15.1811095776      8.72E-04 Normal BFGS step
TIMEINFO->: J/JK contribution 333.63 sec.
   26     -15.1811102049      4.07E-04 Normal BFGS step
TIMEINFO->: J/JK contribution 334.67 sec.
   27     -15.1811103922      1.97E-04 Normal BFGS step
TIMEINFO->: J/JK contribution 332.69 sec.
   28     -15.1811104375      7.41E-05 Normal BFGS step
TIMEINFO->: J/JK contribution 330.62 sec.
   29     -15.1811104391      4.84E-05 Normal BFGS step
TIMEINFO->: J/JK contribution 330.20 sec.
   30     -15.1811104412      1.46E-06 Line search: understep
TIMEINFO->: J/JK contribution 336.37 sec.
   31     -15.1811104535      2.89E-04 Normal BFGS step
TIMEINFO->: J/JK contribution 333.98 sec.
   32     -15.1811141554      1.12E-04 Line search: understep
TIMEINFO->: J/JK contribution 334.69 sec.
   GDM::BFGS:   rebuilding Hinv to be positive definite
   33     -15.1815339743      5.97E-02 Normal BFGS step
TIMEINFO->: J/JK contribution 335.69 sec.
   GDM::BFGS:   rebuilding Hinv to be positive definite
   34     -15.1866017289      1.16E-01 Dog-leg BFGS step
TIMEINFO->: J/JK contribution 334.84 sec.
   GDM::BFGS:   rebuilding Hinv to be positive definite
   35     -15.1993069304      1.90E-01 Dog-leg BFGS step
TIMEINFO->: J/JK contribution 335.19 sec.
   36     -15.2561308586      9.69E-02 Dog-leg BFGS step
TIMEINFO->: J/JK contribution 335.34 sec.
   37     -15.2182409262      4.61E-02 Line search: overstep
TIMEINFO->: J/JK contribution 335.12 sec.
   38     -15.2631339281      5.97E-02 Dog-leg BFGS step
TIMEINFO->: J/JK contribution 335.03 sec.
   39     -15.2664790807      6.46E-02 Normal BFGS step
TIMEINFO->: J/JK contribution 334.86 sec.
   40     -15.2666104056      5.60E-02 Normal BFGS step
TIMEINFO->: J/JK contribution 335.81 sec.
   41     -15.2665954282      1.14E-02 Line search: overstep
TIMEINFO->: J/JK contribution 336.17 sec.
   42     -15.2676069022      2.39E-02 Normal BFGS step
TIMEINFO->: J/JK contribution 334.88 sec.
   43     -15.2665273452      3.02E-02 Line search: overstep
TIMEINFO->: J/JK contribution 335.45 sec.
   44     -15.2678049328      1.65E-02 Normal BFGS step
TIMEINFO->: J/JK contribution 333.53 sec.
   45     -15.2678107418      1.68E-02 Normal BFGS step
TIMEINFO->: J/JK contribution 336.64 sec.
   46     -15.2679047643      3.55E-04 Normal BFGS step
TIMEINFO->: J/JK contribution 332.24 sec.
   47     -15.2679048171      3.14E-04 Normal BFGS step
TIMEINFO->: J/JK contribution 331.63 sec.
   48     -15.2679048991      1.74E-05 Normal BFGS step
TIMEINFO->: J/JK contribution 329.74 sec.
   49     -15.2679048994      1.13E-05 Normal BFGS step
TIMEINFO->: J/JK contribution 330.13 sec.
   50     -15.2679048996      1.39E-06 Normal BFGS step
TIMEINFO->: J/JK contribution 326.74 sec.
   51     -15.2679048996      1.01E-06 Normal BFGS step
TIMEINFO->: J/JK contribution 321.50 sec.
   52     -15.2679048996      8.90E-08 Normal BFGS step
TIMEINFO->: J/JK contribution 317.65 sec.
   53     -15.2679048996      5.53E-08 Normal BFGS step
TIMEINFO->: J/JK contribution 310.93 sec.
   54     -15.2679048996      6.53E-09 Convergence criterion met
 ---------------------------------------
 B3LYP orbitals are now ready for the XYGJ-OS calculation.
 XYGJ-OS energy = Exch (0.7731 HF  + 0.2269 Slater) + 
                  Corr (0.2754 LYP + 0.2309 VWN1RPA + 0.4364 OS-MP2)
 SCF time:  CPU 18714.67 s  wall 2356.98 s
 SCF   energy in the final basis set = -15.17215636
 Total energy in the final basis set = -15.17215636
 Entering Scaled Opposite Spin MP2
 NBasAux in rimp2.F =          197

 OS-MP2 job begins now...

 SOS scaling factor =  0.4
 Form (P|Q)**(-1/2)...

 Q-Chem fatal error occurred in module libmdc/qalloc.C, line 49:

 Illegal memory length in mega_alloc


 Please submit a crash report at q-chem.com/reporter 
 
 
 
User input: 2 of 7 
 
Q-Chem Developer Version!
                  Welcome to Q-Chem
     A Quantum Leap Into The Future Of Chemistry


 Q-Chem 5.1, Q-Chem, Inc., Pleasanton, CA (2018)

 Yihan Shao,  Zhengting Gan,  E. Epifanovsky,  A. T. B. Gilbert,  M. Wormit,  
 J. Kussmann,  A. W. Lange,  A. Behn,  Jia Deng,  Xintian Feng,  D. Ghosh,  
 M. Goldey,  P. R. Horn,  L. D. Jacobson,  I. Kaliman,  T. Kus,  A. Landau,  
 Jie Liu,  E. I. Proynov,  R. M. Richard,  R. P. Steele,  E. J. Sundstrom,  
 H. L. Woodcock III,  P. M. Zimmerman,  D. Zuev,  B. Albrecht,  E. Alguire,  
 S. A. Baeppler,  D. Barton,  Z. Benda,  Y. A. Bernard,  E. J. Berquist,  
 K. B. Bravaya,  H. Burton,  D. Casanova,  Chun-Min Chang,  Yunqing Chen,  
 A. Chien,  K. D. Closser,  M. P. Coons,  S. Coriani,  S. Dasgupta,  
 A. L. Dempwolff,  M. Diedenhofen,  Hainam Do,  R. G. Edgar,  Po-Tung Fang,  
 S. Faraji,  S. Fatehi,  Qingguo Feng,  K. D. Fenk,  J. Fosso-Tande,  
 Qinghui Ge,  A. Ghysels,  G. Gidofalvi,  J. Gomes,  J. Gonthier,  A. Gunina,  
 D. Hait,  M. W. D. Hanson-Heine,  P. H. P. Harbach,  A. W. Hauser,  
 J. E. Herr,  E. G. Hohenstein,  Z. C. Holden,  Kerwin Hui,  B. C. Huynh,  
 T.-C. Jagau,  Hyunjun Ji,  B. Kaduk,  K. Khistyaev,  Jaehoon Kim,  
 P. Klunzinger,  K. Koh,  D. Kosenkov,  L. Koulias,  T. Kowalczyk,  
 C. M. Krauter,  A. Kunitsa,  Ka Un Lao,  A. Laurent,  K. V. Lawler,  
 Joonho Lee,  D. Lefrancois,  S. Lehtola,  D. S. Levine,  Yi-Pei Li,  
 You-Sheng Lin,  Fenglai Liu,  E. Livshits,  A. Luenser,  P. Manohar,  
 E. Mansoor,  S. F. Manzer,  Shan-Ping Mao,  Yuezhi Mao,  N. Mardirossian,  
 A. V. Marenich,  T. Markovich,  L. A. Martinez-Martinez,  S. A. Maurer,  
 N. J. Mayhall,  S. C. McKenzie,  J.-M. Mewes,  A. F. Morrison,  
 J. W. Mullinax,  K. Nanda,  T. S. Nguyen-Beck,  R. Olivares-Amaya,  
 J. A. Parkhill,  T. M. Perrine,  F. Plasser,  P. Pokhilko,  S. Prager,  
 A. Prociuk,  E. Ramos,  D. R. Rehn,  F. Rob,  M. Schneider,  N. Sergueev,  
 S. M. Sharada,  S. Sharma,  D. W. Small,  T. Stauch,  T. Stein,  
 Yu-Chuan Su,  A. J. W. Thom,  A. Tkatchenko,  T. Tsuchimochi,  N. M. Tubman,  
 L. Vogt,  M. L. Vidal,  O. Vydrov,  M. A. Watson,  J. Wenzel,  
 M. de Wergifosse,  T. A. Wesolowski,  A. White,  J. Witte,  A. Yamada,  
 Jun Yang,  K. Yao,  S. Yeganeh,  S. R. Yost,  Zhi-Qiang You,  A. Zech,  
 Igor Ying Zhang,  Xing Zhang,  Yan Zhao,  Ying Zhu,  B. R. Brooks,  
 G. K. L. Chan,  C. J. Cramer,  M. S. Gordon,  W. J. Hehre,  A. Klamt,  
 M. W. Schmidt,  C. D. Sherrill,  D. G. Truhlar,  A. Aspuru-Guzik,  R. Baer,  
 A. T. Bell,  N. A. Besley,  Jeng-Da Chai,  A. E. DePrince, III,  
 R. A. DiStasio Jr.,  A. Dreuw,  B. D. Dunietz,  T. R. Furlani,  
 Chao-Ping Hsu,  Yousung Jung,  Jing Kong,  D. S. Lambrecht,  WanZhen Liang,  
 C. Ochsenfeld,  V. A. Rassolov,  L. V. Slipchenko,  J. E. Subotnik,  
 T. Van Voorhis,  J. M. Herbert,  A. I. Krylov,  P. M. W. Gill,  M. Head-Gordon

 Contributors to earlier versions of Q-Chem not listed above: 
 R. D. Adamson,  B. Austin,  J. Baker,  G. J. O. Beran,  K. Brandhorst,  
 S. T. Brown,  E. F. C. Byrd,  A. K. Chakraborty,  C.-L. Cheng,  
 Siu Hung Chien,  D. M. Chipman,  D. L. Crittenden,  H. Dachsel,  
 R. J. Doerksen,  A. D. Dutoi,  L. Fusti-Molnar,  W. A. Goddard III,  
 A. Golubeva-Zadorozhnaya,  S. R. Gwaltney,  G. Hawkins,  A. Heyden,  
 S. Hirata,  G. Kedziora,  F. J. Keil,  C. Kelley,  Jihan Kim,  R. A. King,  
 R. Z. Khaliullin,  P. P. Korambath,  W. Kurlancheek,  A. M. Lee,  M. S. Lee,  
 S. V. Levchenko,  Ching Yeh Lin,  D. Liotard,  R. C. Lochan,  I. Lotan,  
 P. E. Maslen,  N. Nair,  D. P. O'Neill,  D. Neuhauser,  E. Neuscamman,  
 C. M. Oana,  R. Olson,  B. Peters,  R. Peverati,  P. A. Pieniazek,  
 Y. M. Rhee,  J. Ritchie,  M. A. Rohrdanz,  E. Rosta,  N. J. Russ,  
 H. F. Schaefer III,  N. E. Schultz,  N. Shenvi,  A. C. Simmonett,  A. Sodt,  
 D. Stuck,  K. S. Thanthiriwatte,  V. Vanovschi,  Tao Wang,  A. Warshel,  
 C. F. Williams,  Q. Wu,  X. Xu,  W. Zhang

 Please cite Q-Chem as follows:
 Y. Shao et al., Mol. Phys. 113, 184-215 (2015)
 DOI: 10.1080/00268976.2014.952696

 Q-Chem 5.1.1 for Intel X86 EM64T Linux

 Parts of Q-Chem use Armadillo 8.300.2 (Tropical Shenanigans).
 http://arma.sourceforge.net/

 Q-Chem begins on Fri Oct 23 20:22:34 2020  

Host: n0035.mhg0
0

     Scratch files written to /local/scratch/users/yhljason/BeH_XYGJOS_aug-cc-pcV5Z.inp20201023194308//
The previous job contains 0 fragments, simply inherited here
Input Ideriv = 1
Curr. Ideriv = -1
Max.  Ideriv = 1

Checking the input file for inconsistencies... 	...done.

--------------------------------------------------------------
User input:
--------------------------------------------------------------
$molecule
read
$end

$rem

jobtype sp
exchange XYGJOS
xc_grid 000099000590
basis gen
aux_basis rimp2-cc-pVQZ
max_scf_cycles 200
thresh 14
scf_convergence 8
mem_total 128000
cc_memory 96000
cc_backend xm
mem_static 1500
symmetry false
sym_ignore true
scf_guess read
unrestricted false
scf_algorithm gdm
n_frozen_core 1000
$end

$basis
****
H
aug-cc-pCV5Z
****
Be     0
S   14   1.00
  54620.0000000              1.8000000e-05
   8180.0000000              1.3800000e-04
   1862.0000000              7.2300000e-04
    527.3000000              3.0390000e-03
    172.0000000              1.0908000e-02
     62.1000000              3.4035000e-02
     24.2100000              9.1193000e-02
      9.9930000              1.9926800e-01
      4.3050000              3.2935500e-01
      1.9210000              3.4048900e-01
      0.8663000              1.4374000e-01
      0.2475000              6.5170000e-03
      0.1009000             -1.8650000e-03
      0.0412900              4.8000000e-04
S   14   1.00
  54620.0000000             -3.0000000e-06
   8180.0000000             -2.5000000e-05
   1862.0000000             -1.3100000e-04
    527.3000000             -5.5800000e-04
    172.0000000             -1.9880000e-03
     62.1000000             -6.3700000e-03
     24.2100000             -1.7217000e-02
      9.9930000             -4.0858000e-02
      4.3050000             -7.4237000e-02
      1.9210000             -1.1923400e-01
      0.8663000             -8.7777000e-02
      0.2475000              2.7878800e-01
      0.1009000              5.8349900e-01
      0.0412900              2.6900700e-01
S   1   1.00
      0.8663000              1.0000000e+00
S   1   1.00
      0.2475000              1.0000000e+00
S   1   1.00
      0.1009000              1.0000000e+00
S   1   1.00
      0.0412900              1.0000000e+00
P   8   1.00
     43.7500000              6.3300000e-04
     10.3300000              4.8080000e-03
      3.2260000              2.0527000e-02
      1.1270000              6.7816000e-02
      0.4334000              1.9286800e-01
      0.1808000              3.7869200e-01
      0.0782700              4.0057400e-01
      0.0337200              1.3806700e-01
P   1   1.00
      0.4334000              1.0000000e+00
P   1   1.00
      0.1808000              1.0000000e+00
P   1   1.00
      0.0782700              1.0000000e+00
P   1   1.00
      0.0337200              1.0000000e+00
D   1   1.00
      1.7175000              1.0000000e+00
D   1   1.00
      0.7646000              1.0000000e+00
D   1   1.00
      0.3404000              1.0000000e+00
D   1   1.00
      0.1515000              1.0000000e+00
F   1   1.00
      0.6127000              1.0000000e+00
F   1   1.00
      0.3568000              1.0000000e+00
F   1   1.00
      0.2078000              1.0000000e+00
G   1   1.00
      0.5980000              1.0000000e+00
G   1   1.00
      0.3183000              1.0000000e+00
H   1   1.00
      0.5142000              1.0000000e+00
S   1   1.00
     51.1620000              1.0000000        
S   1   1.00
     23.1700000              1.0000000        
S   1   1.00
     10.4930000              1.0000000        
S   1   1.00
      4.7521000              1.0000000       
P   1   1.00
     56.4100000              1.0000000
P   1   1.00
     22.0430000              1.0000000
P   1   1.00
      8.6139000              1.0000000
P   1   1.00
      3.3661000              1.0000000
D   1   1.00
     41.4200000              1.0000000        
D   1   1.00
     15.6510000              1.0000000        
D   1   1.00
      5.9140000              1.0000000        
F   1   1.00
     24.1030000              1.0000000        
F   1   1.00
      7.6834000              1.0000000        
G   1   1.00
     15.8210000              1.0000000        
S   1   1.00
      0.0128000              1.0000000        
P   1   1.00
      0.0076000              1.0000000        
D   1   1.00
      0.0428000              1.0000000        
F   1   1.00
      0.0719000              1.0000000        
G   1   1.00
      0.0979000              1.0000000        
H   1   1.00
      0.2033000              1.0000000        
****
$end

$multipole_field
XX 0.0001
$end


--------------------------------------------------------------
 ----------------------------------------------------------------
             Standard Nuclear Orientation (Angstroms)
    I     Atom           X                Y                Z
 ----------------------------------------------------------------
    1      H       0.0000000000     0.0000000000     0.0000000000
    2      Be      0.0000000000     0.0000000000     1.3426000000
 ----------------------------------------------------------------
 Nuclear Repulsion Energy =     1.5765744400 hartrees
 There are        3 alpha and        2 beta electrons

 Q-Chem warning in module forms1/BasisType.C, line 1703:

 Setting pure/cartesian flag to 2111 for general basis


 Requested basis set is non-standard
 There are 61 shells and 281 basis functions

 Total QAlloc Memory Limit 128000 MB
 Mega-Array Size      1467 MB
 MEM_STATIC part      1500 MB

                       Distance Matrix (Angstroms)
             H (  1)
   Be(  2)  1.342600
 
 Applying Cartesian multipole field
    Component          Value
    ---------          -----
     (2,0,0)        1.00000E-04
 Requested basis set is rimp2-cc-pVQZ
 There are 45 shells and 197 basis functions
 A cutoff of  1.0D-14 yielded   1891 shell pairs
 There are     40611 function pairs (     65226 Cartesian)
 
 -------------------------------------------------------
 OpenMP Integral Computing Module                       
 Release: version 1.0, May 2013, Q-Chem Inc. Pittsburgh 
 -------------------------------------------------------
 Integral Job Info:
 Integral job number is                      11
 Integral operator is                         1
 short-range coefficients                     0
 long-range coefficients              100000000
 Omega coefficients                           0
 if combine SR and LR in K                    0
 Integral screening is                        0
 Integral computing path is                   2
 max size of driver memory is           6400000
 size of driver memory is               5498286
 size of scratch memory is             28716118
 max col of scratch BK array             194481
 max len of scratch array in speh3         5572
 max len of scratch index in speh4           72
 max int batch size is                      520
 min int batch size is                       52
 fixed nKL is                                14
 max L of basis functions is                  5
 order of int derivative is                   0
 number of shells is                         61
 number of basis is                         356
 number of cartesian basis is               356
 number of contracted shell pairs          1891
 number of primitive shell pairs           4883
 maxK2 (contraction) of shell pair          196
 max number of K2 of shell pair               1
 max number of CS2 of shell pair            198
 max number of PS2 of shell pair            588
 mem total for path MDJ                  871004
 -------------------------------------------------------
 Smallest overlap matrix eigenvalue = 8.15E-07
 Linear dependence detected in AO basis
 Number of orthogonalized atomic orbitals = 280
 Maximum deviation from orthogonality = 3.200E-11
 Guess MOs from SCF MO coefficient file
 Reading MOs from coefficient file
 Reading MOs from coefficient file
 A restricted hybrid HF-DFT SCF calculation will be
 performed using Geometric Direct Minimization
 Exchange:     0.2000 Hartree-Fock + 0.0800 Slater + 0.7200 B88
 Correlation:  0.1900 VWN1RPA + 0.8100 LYP
 Using Euler-Maclaurin-Lebedev (99,590) quadrature formula
 SCF converges when RMS gradient is below 1.0E-08
Using Q-Chem read-in guess as SCF_GUESS READ specified.

 using 8 threads for integral computing
 -------------------------------------------------------
 OpenMP Integral computing Module                
 Release: version 2.0, May 2017, Q-Chem Inc. Pleasanton 
 -------------------------------------------------------
 LTot/LBra/LKet=          19           9          10
 LTot/LBra/LKet=          20          10          10
 LTot/LBra/LKet=          19           9          10
 LTot/LBra/LKet=          18           9           9

 Q-Chem warning:

 in GenH1, ket side, handled with new code


 Q-Chem warning:

 in GenH1, ket side, handled with new code

 LTot/LBra/LKet=          19           9          10
 LTot/LBra/LKet=          20          10          10
 LTot/LBra/LKet=          20          10          10

 Q-Chem warning:

 in GenH1, ket side, handled with new code


 Q-Chem warning:

 in GenH1, ket side, handled with new code

 LTot/LBra/LKet=          19           9          10

 Q-Chem warning:

 in GenH1, ket side, handled with new code


 Q-Chem warning:

 in GenH1, ket side, handled with new code


 Q-Chem warning:

 in GenH1, ket side, handled with new code


 Q-Chem warning:

 in GenH1, ket side, handled with new code

 LTot/LBra/LBra=          18           9           9

 Q-Chem warning:

 in GenH1, bra side, handled with new code

TIMEINFO->: J/JK contribution 337.74 sec.
 -------------------------------------------------------
 OpenMP BLAS3 based DFT computing Module                
 Release: version 1.0, May 2013, Q-Chem Inc. Pittsburgh 
 -------------------------------------------------------
 ---------------------------------------
  Cycle       Energy        RMS Gradient
 ---------------------------------------
    1     -15.2684068289      7.76E-04 Normal BFGS step
TIMEINFO->: J/JK contribution 334.54 sec.
    2     -15.2684074442      6.70E-04 Normal BFGS step
TIMEINFO->: J/JK contribution 333.08 sec.
    3     -15.2684076545      1.62E-04 Normal BFGS step
TIMEINFO->: J/JK contribution 332.44 sec.
    4     -15.2684076659      6.99E-05 Normal BFGS step
TIMEINFO->: J/JK contribution 331.84 sec.
    5     -15.2684076689      6.63E-06 Normal BFGS step
TIMEINFO->: J/JK contribution 328.53 sec.
    6     -15.2684076689      4.32E-06 Normal BFGS step
TIMEINFO->: J/JK contribution 324.28 sec.
    7     -15.2684076690      9.84E-07 Normal BFGS step
TIMEINFO->: J/JK contribution 323.04 sec.
    8     -15.2684076690      3.68E-07 Normal BFGS step
TIMEINFO->: J/JK contribution 319.48 sec.
    9     -15.2684076690      2.41E-08 Normal BFGS step
TIMEINFO->: J/JK contribution 309.18 sec.
   10     -15.2684076690      1.07E-08 Normal BFGS step
TIMEINFO->: J/JK contribution 299.14 sec.
   GDM::WARNING energy changes are now smaller than effective accuracy.
   GDM::        calculation will continue, but THRESH should be increased
   GDM::        or SCF_CONVERGENCE decreased.
   GDM::        effective_thresh =   3.000000000000000E-011
   11     -15.2684076690      1.99E-09 Convergence criterion met
 ---------------------------------------
 B3LYP orbitals are now ready for the XYGJ-OS calculation.
 XYGJ-OS energy = Exch (0.7731 HF  + 0.2269 Slater) + 
                  Corr (0.2754 LYP + 0.2309 VWN1RPA + 0.4364 OS-MP2)
 SCF time:  CPU 3734.18 s  wall 470.15 s
 SCF   energy in the final basis set = -15.17264814
 Total energy in the final basis set = -15.17264814
 Entering Scaled Opposite Spin MP2
 NBasAux in rimp2.F =          197

 OS-MP2 job begins now...

 SOS scaling factor =  0.4
 Form (P|Q)**(-1/2)...

 Q-Chem fatal error occurred in module libmdc/qalloc.C, line 49:

 Illegal memory length in mega_alloc


 Please submit a crash report at q-chem.com/reporter 
 
 
 
User input: 3 of 7 
 
Q-Chem Developer Version!
                  Welcome to Q-Chem
     A Quantum Leap Into The Future Of Chemistry


 Q-Chem 5.1, Q-Chem, Inc., Pleasanton, CA (2018)

 Yihan Shao,  Zhengting Gan,  E. Epifanovsky,  A. T. B. Gilbert,  M. Wormit,  
 J. Kussmann,  A. W. Lange,  A. Behn,  Jia Deng,  Xintian Feng,  D. Ghosh,  
 M. Goldey,  P. R. Horn,  L. D. Jacobson,  I. Kaliman,  T. Kus,  A. Landau,  
 Jie Liu,  E. I. Proynov,  R. M. Richard,  R. P. Steele,  E. J. Sundstrom,  
 H. L. Woodcock III,  P. M. Zimmerman,  D. Zuev,  B. Albrecht,  E. Alguire,  
 S. A. Baeppler,  D. Barton,  Z. Benda,  Y. A. Bernard,  E. J. Berquist,  
 K. B. Bravaya,  H. Burton,  D. Casanova,  Chun-Min Chang,  Yunqing Chen,  
 A. Chien,  K. D. Closser,  M. P. Coons,  S. Coriani,  S. Dasgupta,  
 A. L. Dempwolff,  M. Diedenhofen,  Hainam Do,  R. G. Edgar,  Po-Tung Fang,  
 S. Faraji,  S. Fatehi,  Qingguo Feng,  K. D. Fenk,  J. Fosso-Tande,  
 Qinghui Ge,  A. Ghysels,  G. Gidofalvi,  J. Gomes,  J. Gonthier,  A. Gunina,  
 D. Hait,  M. W. D. Hanson-Heine,  P. H. P. Harbach,  A. W. Hauser,  
 J. E. Herr,  E. G. Hohenstein,  Z. C. Holden,  Kerwin Hui,  B. C. Huynh,  
 T.-C. Jagau,  Hyunjun Ji,  B. Kaduk,  K. Khistyaev,  Jaehoon Kim,  
 P. Klunzinger,  K. Koh,  D. Kosenkov,  L. Koulias,  T. Kowalczyk,  
 C. M. Krauter,  A. Kunitsa,  Ka Un Lao,  A. Laurent,  K. V. Lawler,  
 Joonho Lee,  D. Lefrancois,  S. Lehtola,  D. S. Levine,  Yi-Pei Li,  
 You-Sheng Lin,  Fenglai Liu,  E. Livshits,  A. Luenser,  P. Manohar,  
 E. Mansoor,  S. F. Manzer,  Shan-Ping Mao,  Yuezhi Mao,  N. Mardirossian,  
 A. V. Marenich,  T. Markovich,  L. A. Martinez-Martinez,  S. A. Maurer,  
 N. J. Mayhall,  S. C. McKenzie,  J.-M. Mewes,  A. F. Morrison,  
 J. W. Mullinax,  K. Nanda,  T. S. Nguyen-Beck,  R. Olivares-Amaya,  
 J. A. Parkhill,  T. M. Perrine,  F. Plasser,  P. Pokhilko,  S. Prager,  
 A. Prociuk,  E. Ramos,  D. R. Rehn,  F. Rob,  M. Schneider,  N. Sergueev,  
 S. M. Sharada,  S. Sharma,  D. W. Small,  T. Stauch,  T. Stein,  
 Yu-Chuan Su,  A. J. W. Thom,  A. Tkatchenko,  T. Tsuchimochi,  N. M. Tubman,  
 L. Vogt,  M. L. Vidal,  O. Vydrov,  M. A. Watson,  J. Wenzel,  
 M. de Wergifosse,  T. A. Wesolowski,  A. White,  J. Witte,  A. Yamada,  
 Jun Yang,  K. Yao,  S. Yeganeh,  S. R. Yost,  Zhi-Qiang You,  A. Zech,  
 Igor Ying Zhang,  Xing Zhang,  Yan Zhao,  Ying Zhu,  B. R. Brooks,  
 G. K. L. Chan,  C. J. Cramer,  M. S. Gordon,  W. J. Hehre,  A. Klamt,  
 M. W. Schmidt,  C. D. Sherrill,  D. G. Truhlar,  A. Aspuru-Guzik,  R. Baer,  
 A. T. Bell,  N. A. Besley,  Jeng-Da Chai,  A. E. DePrince, III,  
 R. A. DiStasio Jr.,  A. Dreuw,  B. D. Dunietz,  T. R. Furlani,  
 Chao-Ping Hsu,  Yousung Jung,  Jing Kong,  D. S. Lambrecht,  WanZhen Liang,  
 C. Ochsenfeld,  V. A. Rassolov,  L. V. Slipchenko,  J. E. Subotnik,  
 T. Van Voorhis,  J. M. Herbert,  A. I. Krylov,  P. M. W. Gill,  M. Head-Gordon

 Contributors to earlier versions of Q-Chem not listed above: 
 R. D. Adamson,  B. Austin,  J. Baker,  G. J. O. Beran,  K. Brandhorst,  
 S. T. Brown,  E. F. C. Byrd,  A. K. Chakraborty,  C.-L. Cheng,  
 Siu Hung Chien,  D. M. Chipman,  D. L. Crittenden,  H. Dachsel,  
 R. J. Doerksen,  A. D. Dutoi,  L. Fusti-Molnar,  W. A. Goddard III,  
 A. Golubeva-Zadorozhnaya,  S. R. Gwaltney,  G. Hawkins,  A. Heyden,  
 S. Hirata,  G. Kedziora,  F. J. Keil,  C. Kelley,  Jihan Kim,  R. A. King,  
 R. Z. Khaliullin,  P. P. Korambath,  W. Kurlancheek,  A. M. Lee,  M. S. Lee,  
 S. V. Levchenko,  Ching Yeh Lin,  D. Liotard,  R. C. Lochan,  I. Lotan,  
 P. E. Maslen,  N. Nair,  D. P. O'Neill,  D. Neuhauser,  E. Neuscamman,  
 C. M. Oana,  R. Olson,  B. Peters,  R. Peverati,  P. A. Pieniazek,  
 Y. M. Rhee,  J. Ritchie,  M. A. Rohrdanz,  E. Rosta,  N. J. Russ,  
 H. F. Schaefer III,  N. E. Schultz,  N. Shenvi,  A. C. Simmonett,  A. Sodt,  
 D. Stuck,  K. S. Thanthiriwatte,  V. Vanovschi,  Tao Wang,  A. Warshel,  
 C. F. Williams,  Q. Wu,  X. Xu,  W. Zhang

 Please cite Q-Chem as follows:
 Y. Shao et al., Mol. Phys. 113, 184-215 (2015)
 DOI: 10.1080/00268976.2014.952696

 Q-Chem 5.1.1 for Intel X86 EM64T Linux

 Parts of Q-Chem use Armadillo 8.300.2 (Tropical Shenanigans).
 http://arma.sourceforge.net/

 Q-Chem begins on Fri Oct 23 20:30:28 2020  

Host: n0035.mhg0
0

     Scratch files written to /local/scratch/users/yhljason/BeH_XYGJOS_aug-cc-pcV5Z.inp20201023194308//
The previous job contains 0 fragments, simply inherited here
Input Ideriv = 1
Curr. Ideriv = -1
Max.  Ideriv = 1

Checking the input file for inconsistencies... 	...done.

--------------------------------------------------------------
User input:
--------------------------------------------------------------
$molecule
read
$end

$rem

jobtype sp
exchange XYGJOS
xc_grid 000099000590
basis gen
aux_basis rimp2-cc-pVQZ
max_scf_cycles 200
thresh 14
scf_convergence 8
mem_total 128000
cc_memory 96000
cc_backend xm
mem_static 1500
symmetry false
sym_ignore true
scf_guess read
unrestricted false
scf_algorithm gdm
n_frozen_core 1000
$end

$basis
****
H
aug-cc-pCV5Z
****
Be     0
S   14   1.00
  54620.0000000              1.8000000e-05
   8180.0000000              1.3800000e-04
   1862.0000000              7.2300000e-04
    527.3000000              3.0390000e-03
    172.0000000              1.0908000e-02
     62.1000000              3.4035000e-02
     24.2100000              9.1193000e-02
      9.9930000              1.9926800e-01
      4.3050000              3.2935500e-01
      1.9210000              3.4048900e-01
      0.8663000              1.4374000e-01
      0.2475000              6.5170000e-03
      0.1009000             -1.8650000e-03
      0.0412900              4.8000000e-04
S   14   1.00
  54620.0000000             -3.0000000e-06
   8180.0000000             -2.5000000e-05
   1862.0000000             -1.3100000e-04
    527.3000000             -5.5800000e-04
    172.0000000             -1.9880000e-03
     62.1000000             -6.3700000e-03
     24.2100000             -1.7217000e-02
      9.9930000             -4.0858000e-02
      4.3050000             -7.4237000e-02
      1.9210000             -1.1923400e-01
      0.8663000             -8.7777000e-02
      0.2475000              2.7878800e-01
      0.1009000              5.8349900e-01
      0.0412900              2.6900700e-01
S   1   1.00
      0.8663000              1.0000000e+00
S   1   1.00
      0.2475000              1.0000000e+00
S   1   1.00
      0.1009000              1.0000000e+00
S   1   1.00
      0.0412900              1.0000000e+00
P   8   1.00
     43.7500000              6.3300000e-04
     10.3300000              4.8080000e-03
      3.2260000              2.0527000e-02
      1.1270000              6.7816000e-02
      0.4334000              1.9286800e-01
      0.1808000              3.7869200e-01
      0.0782700              4.0057400e-01
      0.0337200              1.3806700e-01
P   1   1.00
      0.4334000              1.0000000e+00
P   1   1.00
      0.1808000              1.0000000e+00
P   1   1.00
      0.0782700              1.0000000e+00
P   1   1.00
      0.0337200              1.0000000e+00
D   1   1.00
      1.7175000              1.0000000e+00
D   1   1.00
      0.7646000              1.0000000e+00
D   1   1.00
      0.3404000              1.0000000e+00
D   1   1.00
      0.1515000              1.0000000e+00
F   1   1.00
      0.6127000              1.0000000e+00
F   1   1.00
      0.3568000              1.0000000e+00
F   1   1.00
      0.2078000              1.0000000e+00
G   1   1.00
      0.5980000              1.0000000e+00
G   1   1.00
      0.3183000              1.0000000e+00
H   1   1.00
      0.5142000              1.0000000e+00
S   1   1.00
     51.1620000              1.0000000        
S   1   1.00
     23.1700000              1.0000000        
S   1   1.00
     10.4930000              1.0000000        
S   1   1.00
      4.7521000              1.0000000       
P   1   1.00
     56.4100000              1.0000000
P   1   1.00
     22.0430000              1.0000000
P   1   1.00
      8.6139000              1.0000000
P   1   1.00
      3.3661000              1.0000000
D   1   1.00
     41.4200000              1.0000000        
D   1   1.00
     15.6510000              1.0000000        
D   1   1.00
      5.9140000              1.0000000        
F   1   1.00
     24.1030000              1.0000000        
F   1   1.00
      7.6834000              1.0000000        
G   1   1.00
     15.8210000              1.0000000        
S   1   1.00
      0.0128000              1.0000000        
P   1   1.00
      0.0076000              1.0000000        
D   1   1.00
      0.0428000              1.0000000        
F   1   1.00
      0.0719000              1.0000000        
G   1   1.00
      0.0979000              1.0000000        
H   1   1.00
      0.2033000              1.0000000        
****
$end

$multipole_field
XX -0.0001
$end


--------------------------------------------------------------
 ----------------------------------------------------------------
             Standard Nuclear Orientation (Angstroms)
    I     Atom           X                Y                Z
 ----------------------------------------------------------------
    1      H       0.0000000000     0.0000000000     0.0000000000
    2      Be      0.0000000000     0.0000000000     1.3426000000
 ----------------------------------------------------------------
 Nuclear Repulsion Energy =     1.5765744400 hartrees
 There are        3 alpha and        2 beta electrons

 Q-Chem warning in module forms1/BasisType.C, line 1703:

 Setting pure/cartesian flag to 2111 for general basis


 Requested basis set is non-standard
 There are 61 shells and 281 basis functions

 Total QAlloc Memory Limit 128000 MB
 Mega-Array Size      1467 MB
 MEM_STATIC part      1500 MB

                       Distance Matrix (Angstroms)
             H (  1)
   Be(  2)  1.342600
 
 Applying Cartesian multipole field
    Component          Value
    ---------          -----
     (2,0,0)       -1.00000E-04
 Requested basis set is rimp2-cc-pVQZ
 There are 45 shells and 197 basis functions
 A cutoff of  1.0D-14 yielded   1891 shell pairs
 There are     40611 function pairs (     65226 Cartesian)
 
 -------------------------------------------------------
 OpenMP Integral Computing Module                       
 Release: version 1.0, May 2013, Q-Chem Inc. Pittsburgh 
 -------------------------------------------------------
 Integral Job Info:
 Integral job number is                      11
 Integral operator is                         1
 short-range coefficients                     0
 long-range coefficients              100000000
 Omega coefficients                           0
 if combine SR and LR in K                    0
 Integral screening is                        0
 Integral computing path is                   2
 max size of driver memory is           6400000
 size of driver memory is               5498286
 size of scratch memory is             28716118
 max col of scratch BK array             194481
 max len of scratch array in speh3         5572
 max len of scratch index in speh4           72
 max int batch size is                      520
 min int batch size is                       52
 fixed nKL is                                14
 max L of basis functions is                  5
 order of int derivative is                   0
 number of shells is                         61
 number of basis is                         356
 number of cartesian basis is               356
 number of contracted shell pairs          1891
 number of primitive shell pairs           4883
 maxK2 (contraction) of shell pair          196
 max number of K2 of shell pair               1
 max number of CS2 of shell pair            198
 max number of PS2 of shell pair            588
 mem total for path MDJ                  871004
 -------------------------------------------------------
 Smallest overlap matrix eigenvalue = 8.15E-07
 Linear dependence detected in AO basis
 Number of orthogonalized atomic orbitals = 280
 Maximum deviation from orthogonality = 3.200E-11
 Guess MOs from SCF MO coefficient file
 Reading MOs from coefficient file
 Reading MOs from coefficient file
 A restricted hybrid HF-DFT SCF calculation will be
 performed using Geometric Direct Minimization
 Exchange:     0.2000 Hartree-Fock + 0.0800 Slater + 0.7200 B88
 Correlation:  0.1900 VWN1RPA + 0.8100 LYP
 Using Euler-Maclaurin-Lebedev (99,590) quadrature formula
 SCF converges when RMS gradient is below 1.0E-08
Using Q-Chem read-in guess as SCF_GUESS READ specified.

 using 8 threads for integral computing
 -------------------------------------------------------
 OpenMP Integral computing Module                
 Release: version 2.0, May 2017, Q-Chem Inc. Pleasanton 
 -------------------------------------------------------
 LTot/LBra/LKet=          19           9          10
 LTot/LBra/LKet=          19           9          10
 LTot/LBra/LKet=          20          10          10
 LTot/LBra/LKet=          18           9           9
 LTot/LBra/LKet=          20          10          10

 Q-Chem warning:

 in GenH1, ket side, handled with new code

 LTot/LBra/LKet=          20          10          10

 Q-Chem warning:

 in GenH1, ket side, handled with new code


 Q-Chem warning:

 in GenH1, ket side, handled with new code

 LTot/LBra/LKet=          19           9          10

 Q-Chem warning:

 in GenH1, ket side, handled with new code


 Q-Chem warning:

 in GenH1, ket side, handled with new code

 LTot/LBra/LKet=          19           9          10

 Q-Chem warning:

 in GenH1, ket side, handled with new code


 Q-Chem warning:

 in GenH1, ket side, handled with new code


 Q-Chem warning:

 in GenH1, ket side, handled with new code

 LTot/LBra/LBra=          18           9           9

 Q-Chem warning:

 in GenH1, bra side, handled with new code

TIMEINFO->: J/JK contribution 335.84 sec.
 -------------------------------------------------------
 OpenMP BLAS3 based DFT computing Module                
 Release: version 1.0, May 2013, Q-Chem Inc. Pittsburgh 
 -------------------------------------------------------
 ---------------------------------------
  Cycle       Energy        RMS Gradient
 ---------------------------------------
    1     -15.2674004353      1.76E-03 Normal BFGS step
TIMEINFO->: J/JK contribution 336.13 sec.
    2     -15.2674029954      1.25E-03 Normal BFGS step
TIMEINFO->: J/JK contribution 333.37 sec.
    3     -15.2674037512      2.83E-04 Normal BFGS step
TIMEINFO->: J/JK contribution 332.58 sec.
    4     -15.2674037873      1.13E-04 Normal BFGS step
TIMEINFO->: J/JK contribution 331.92 sec.
    5     -15.2674037959      1.05E-05 Normal BFGS step
TIMEINFO->: J/JK contribution 329.29 sec.
    6     -15.2674037960      3.92E-06 Normal BFGS step
TIMEINFO->: J/JK contribution 326.04 sec.
    7     -15.2674037960      1.04E-06 Normal BFGS step
TIMEINFO->: J/JK contribution 327.40 sec.
    8     -15.2674037960      5.85E-07 Normal BFGS step
TIMEINFO->: J/JK contribution 320.37 sec.
    9     -15.2674037960      5.22E-08 Normal BFGS step
TIMEINFO->: J/JK contribution 314.36 sec.
   GDM::WARNING energy changes are now smaller than effective accuracy.
   GDM::        calculation will continue, but THRESH should be increased
   GDM::        or SCF_CONVERGENCE decreased.
   GDM::        effective_thresh =   2.347691790971496E-009
   10     -15.2674037960      2.69E-08 Normal BFGS step
TIMEINFO->: J/JK contribution 303.76 sec.
   GDM::WARNING energy changes are now smaller than effective accuracy.
   GDM::        calculation will continue, but THRESH should be increased
   GDM::        or SCF_CONVERGENCE decreased.
   GDM::        effective_thresh =   2.347691790971496E-009
   11     -15.2674037960      3.12E-09 Convergence criterion met
 ---------------------------------------
 B3LYP orbitals are now ready for the XYGJ-OS calculation.
 XYGJ-OS energy = Exch (0.7731 HF  + 0.2269 Slater) + 
                  Corr (0.2754 LYP + 0.2309 VWN1RPA + 0.4364 OS-MP2)
 SCF time:  CPU 3751.14 s  wall 472.29 s
 SCF   energy in the final basis set = -15.17166593
 Total energy in the final basis set = -15.17166593
 Entering Scaled Opposite Spin MP2
 NBasAux in rimp2.F =          197

 OS-MP2 job begins now...

 SOS scaling factor =  0.4
 Form (P|Q)**(-1/2)...

 Q-Chem fatal error occurred in module libmdc/qalloc.C, line 49:

 Illegal memory length in mega_alloc


 Please submit a crash report at q-chem.com/reporter 
 
 
 
User input: 4 of 7 
 
Q-Chem Developer Version!
                  Welcome to Q-Chem
     A Quantum Leap Into The Future Of Chemistry


 Q-Chem 5.1, Q-Chem, Inc., Pleasanton, CA (2018)

 Yihan Shao,  Zhengting Gan,  E. Epifanovsky,  A. T. B. Gilbert,  M. Wormit,  
 J. Kussmann,  A. W. Lange,  A. Behn,  Jia Deng,  Xintian Feng,  D. Ghosh,  
 M. Goldey,  P. R. Horn,  L. D. Jacobson,  I. Kaliman,  T. Kus,  A. Landau,  
 Jie Liu,  E. I. Proynov,  R. M. Richard,  R. P. Steele,  E. J. Sundstrom,  
 H. L. Woodcock III,  P. M. Zimmerman,  D. Zuev,  B. Albrecht,  E. Alguire,  
 S. A. Baeppler,  D. Barton,  Z. Benda,  Y. A. Bernard,  E. J. Berquist,  
 K. B. Bravaya,  H. Burton,  D. Casanova,  Chun-Min Chang,  Yunqing Chen,  
 A. Chien,  K. D. Closser,  M. P. Coons,  S. Coriani,  S. Dasgupta,  
 A. L. Dempwolff,  M. Diedenhofen,  Hainam Do,  R. G. Edgar,  Po-Tung Fang,  
 S. Faraji,  S. Fatehi,  Qingguo Feng,  K. D. Fenk,  J. Fosso-Tande,  
 Qinghui Ge,  A. Ghysels,  G. Gidofalvi,  J. Gomes,  J. Gonthier,  A. Gunina,  
 D. Hait,  M. W. D. Hanson-Heine,  P. H. P. Harbach,  A. W. Hauser,  
 J. E. Herr,  E. G. Hohenstein,  Z. C. Holden,  Kerwin Hui,  B. C. Huynh,  
 T.-C. Jagau,  Hyunjun Ji,  B. Kaduk,  K. Khistyaev,  Jaehoon Kim,  
 P. Klunzinger,  K. Koh,  D. Kosenkov,  L. Koulias,  T. Kowalczyk,  
 C. M. Krauter,  A. Kunitsa,  Ka Un Lao,  A. Laurent,  K. V. Lawler,  
 Joonho Lee,  D. Lefrancois,  S. Lehtola,  D. S. Levine,  Yi-Pei Li,  
 You-Sheng Lin,  Fenglai Liu,  E. Livshits,  A. Luenser,  P. Manohar,  
 E. Mansoor,  S. F. Manzer,  Shan-Ping Mao,  Yuezhi Mao,  N. Mardirossian,  
 A. V. Marenich,  T. Markovich,  L. A. Martinez-Martinez,  S. A. Maurer,  
 N. J. Mayhall,  S. C. McKenzie,  J.-M. Mewes,  A. F. Morrison,  
 J. W. Mullinax,  K. Nanda,  T. S. Nguyen-Beck,  R. Olivares-Amaya,  
 J. A. Parkhill,  T. M. Perrine,  F. Plasser,  P. Pokhilko,  S. Prager,  
 A. Prociuk,  E. Ramos,  D. R. Rehn,  F. Rob,  M. Schneider,  N. Sergueev,  
 S. M. Sharada,  S. Sharma,  D. W. Small,  T. Stauch,  T. Stein,  
 Yu-Chuan Su,  A. J. W. Thom,  A. Tkatchenko,  T. Tsuchimochi,  N. M. Tubman,  
 L. Vogt,  M. L. Vidal,  O. Vydrov,  M. A. Watson,  J. Wenzel,  
 M. de Wergifosse,  T. A. Wesolowski,  A. White,  J. Witte,  A. Yamada,  
 Jun Yang,  K. Yao,  S. Yeganeh,  S. R. Yost,  Zhi-Qiang You,  A. Zech,  
 Igor Ying Zhang,  Xing Zhang,  Yan Zhao,  Ying Zhu,  B. R. Brooks,  
 G. K. L. Chan,  C. J. Cramer,  M. S. Gordon,  W. J. Hehre,  A. Klamt,  
 M. W. Schmidt,  C. D. Sherrill,  D. G. Truhlar,  A. Aspuru-Guzik,  R. Baer,  
 A. T. Bell,  N. A. Besley,  Jeng-Da Chai,  A. E. DePrince, III,  
 R. A. DiStasio Jr.,  A. Dreuw,  B. D. Dunietz,  T. R. Furlani,  
 Chao-Ping Hsu,  Yousung Jung,  Jing Kong,  D. S. Lambrecht,  WanZhen Liang,  
 C. Ochsenfeld,  V. A. Rassolov,  L. V. Slipchenko,  J. E. Subotnik,  
 T. Van Voorhis,  J. M. Herbert,  A. I. Krylov,  P. M. W. Gill,  M. Head-Gordon

 Contributors to earlier versions of Q-Chem not listed above: 
 R. D. Adamson,  B. Austin,  J. Baker,  G. J. O. Beran,  K. Brandhorst,  
 S. T. Brown,  E. F. C. Byrd,  A. K. Chakraborty,  C.-L. Cheng,  
 Siu Hung Chien,  D. M. Chipman,  D. L. Crittenden,  H. Dachsel,  
 R. J. Doerksen,  A. D. Dutoi,  L. Fusti-Molnar,  W. A. Goddard III,  
 A. Golubeva-Zadorozhnaya,  S. R. Gwaltney,  G. Hawkins,  A. Heyden,  
 S. Hirata,  G. Kedziora,  F. J. Keil,  C. Kelley,  Jihan Kim,  R. A. King,  
 R. Z. Khaliullin,  P. P. Korambath,  W. Kurlancheek,  A. M. Lee,  M. S. Lee,  
 S. V. Levchenko,  Ching Yeh Lin,  D. Liotard,  R. C. Lochan,  I. Lotan,  
 P. E. Maslen,  N. Nair,  D. P. O'Neill,  D. Neuhauser,  E. Neuscamman,  
 C. M. Oana,  R. Olson,  B. Peters,  R. Peverati,  P. A. Pieniazek,  
 Y. M. Rhee,  J. Ritchie,  M. A. Rohrdanz,  E. Rosta,  N. J. Russ,  
 H. F. Schaefer III,  N. E. Schultz,  N. Shenvi,  A. C. Simmonett,  A. Sodt,  
 D. Stuck,  K. S. Thanthiriwatte,  V. Vanovschi,  Tao Wang,  A. Warshel,  
 C. F. Williams,  Q. Wu,  X. Xu,  W. Zhang

 Please cite Q-Chem as follows:
 Y. Shao et al., Mol. Phys. 113, 184-215 (2015)
 DOI: 10.1080/00268976.2014.952696

 Q-Chem 5.1.1 for Intel X86 EM64T Linux

 Parts of Q-Chem use Armadillo 8.300.2 (Tropical Shenanigans).
 http://arma.sourceforge.net/

 Q-Chem begins on Fri Oct 23 20:38:23 2020  

Host: n0035.mhg0
0

     Scratch files written to /local/scratch/users/yhljason/BeH_XYGJOS_aug-cc-pcV5Z.inp20201023194308//
The previous job contains 0 fragments, simply inherited here
Input Ideriv = 1
Curr. Ideriv = -1
Max.  Ideriv = 1

Checking the input file for inconsistencies... 	...done.

--------------------------------------------------------------
User input:
--------------------------------------------------------------
$molecule
read
$end

$rem

jobtype sp
exchange XYGJOS
xc_grid 000099000590
basis gen
aux_basis rimp2-cc-pVQZ
max_scf_cycles 200
thresh 14
scf_convergence 8
mem_total 128000
cc_memory 96000
cc_backend xm
mem_static 1500
symmetry false
sym_ignore true
scf_guess read
unrestricted false
scf_algorithm gdm
n_frozen_core 1000
$end

$basis
****
H
aug-cc-pCV5Z
****
Be     0
S   14   1.00
  54620.0000000              1.8000000e-05
   8180.0000000              1.3800000e-04
   1862.0000000              7.2300000e-04
    527.3000000              3.0390000e-03
    172.0000000              1.0908000e-02
     62.1000000              3.4035000e-02
     24.2100000              9.1193000e-02
      9.9930000              1.9926800e-01
      4.3050000              3.2935500e-01
      1.9210000              3.4048900e-01
      0.8663000              1.4374000e-01
      0.2475000              6.5170000e-03
      0.1009000             -1.8650000e-03
      0.0412900              4.8000000e-04
S   14   1.00
  54620.0000000             -3.0000000e-06
   8180.0000000             -2.5000000e-05
   1862.0000000             -1.3100000e-04
    527.3000000             -5.5800000e-04
    172.0000000             -1.9880000e-03
     62.1000000             -6.3700000e-03
     24.2100000             -1.7217000e-02
      9.9930000             -4.0858000e-02
      4.3050000             -7.4237000e-02
      1.9210000             -1.1923400e-01
      0.8663000             -8.7777000e-02
      0.2475000              2.7878800e-01
      0.1009000              5.8349900e-01
      0.0412900              2.6900700e-01
S   1   1.00
      0.8663000              1.0000000e+00
S   1   1.00
      0.2475000              1.0000000e+00
S   1   1.00
      0.1009000              1.0000000e+00
S   1   1.00
      0.0412900              1.0000000e+00
P   8   1.00
     43.7500000              6.3300000e-04
     10.3300000              4.8080000e-03
      3.2260000              2.0527000e-02
      1.1270000              6.7816000e-02
      0.4334000              1.9286800e-01
      0.1808000              3.7869200e-01
      0.0782700              4.0057400e-01
      0.0337200              1.3806700e-01
P   1   1.00
      0.4334000              1.0000000e+00
P   1   1.00
      0.1808000              1.0000000e+00
P   1   1.00
      0.0782700              1.0000000e+00
P   1   1.00
      0.0337200              1.0000000e+00
D   1   1.00
      1.7175000              1.0000000e+00
D   1   1.00
      0.7646000              1.0000000e+00
D   1   1.00
      0.3404000              1.0000000e+00
D   1   1.00
      0.1515000              1.0000000e+00
F   1   1.00
      0.6127000              1.0000000e+00
F   1   1.00
      0.3568000              1.0000000e+00
F   1   1.00
      0.2078000              1.0000000e+00
G   1   1.00
      0.5980000              1.0000000e+00
G   1   1.00
      0.3183000              1.0000000e+00
H   1   1.00
      0.5142000              1.0000000e+00
S   1   1.00
     51.1620000              1.0000000        
S   1   1.00
     23.1700000              1.0000000        
S   1   1.00
     10.4930000              1.0000000        
S   1   1.00
      4.7521000              1.0000000       
P   1   1.00
     56.4100000              1.0000000
P   1   1.00
     22.0430000              1.0000000
P   1   1.00
      8.6139000              1.0000000
P   1   1.00
      3.3661000              1.0000000
D   1   1.00
     41.4200000              1.0000000        
D   1   1.00
     15.6510000              1.0000000        
D   1   1.00
      5.9140000              1.0000000        
F   1   1.00
     24.1030000              1.0000000        
F   1   1.00
      7.6834000              1.0000000        
G   1   1.00
     15.8210000              1.0000000        
S   1   1.00
      0.0128000              1.0000000        
P   1   1.00
      0.0076000              1.0000000        
D   1   1.00
      0.0428000              1.0000000        
F   1   1.00
      0.0719000              1.0000000        
G   1   1.00
      0.0979000              1.0000000        
H   1   1.00
      0.2033000              1.0000000        
****
$end

$multipole_field
YY 0.0001
$end


--------------------------------------------------------------
 ----------------------------------------------------------------
             Standard Nuclear Orientation (Angstroms)
    I     Atom           X                Y                Z
 ----------------------------------------------------------------
    1      H       0.0000000000     0.0000000000     0.0000000000
    2      Be      0.0000000000     0.0000000000     1.3426000000
 ----------------------------------------------------------------
 Nuclear Repulsion Energy =     1.5765744400 hartrees
 There are        3 alpha and        2 beta electrons

 Q-Chem warning in module forms1/BasisType.C, line 1703:

 Setting pure/cartesian flag to 2111 for general basis


 Requested basis set is non-standard
 There are 61 shells and 281 basis functions

 Total QAlloc Memory Limit 128000 MB
 Mega-Array Size      1467 MB
 MEM_STATIC part      1500 MB

                       Distance Matrix (Angstroms)
             H (  1)
   Be(  2)  1.342600
 
 Applying Cartesian multipole field
    Component          Value
    ---------          -----
     (0,2,0)        1.00000E-04
 Requested basis set is rimp2-cc-pVQZ
 There are 45 shells and 197 basis functions
 A cutoff of  1.0D-14 yielded   1891 shell pairs
 There are     40611 function pairs (     65226 Cartesian)
 
 -------------------------------------------------------
 OpenMP Integral Computing Module                       
 Release: version 1.0, May 2013, Q-Chem Inc. Pittsburgh 
 -------------------------------------------------------
 Integral Job Info:
 Integral job number is                      11
 Integral operator is                         1
 short-range coefficients                     0
 long-range coefficients              100000000
 Omega coefficients                           0
 if combine SR and LR in K                    0
 Integral screening is                        0
 Integral computing path is                   2
 max size of driver memory is           6400000
 size of driver memory is               5498286
 size of scratch memory is             28716118
 max col of scratch BK array             194481
 max len of scratch array in speh3         5572
 max len of scratch index in speh4           72
 max int batch size is                      520
 min int batch size is                       52
 fixed nKL is                                14
 max L of basis functions is                  5
 order of int derivative is                   0
 number of shells is                         61
 number of basis is                         356
 number of cartesian basis is               356
 number of contracted shell pairs          1891
 number of primitive shell pairs           4883
 maxK2 (contraction) of shell pair          196
 max number of K2 of shell pair               1
 max number of CS2 of shell pair            198
 max number of PS2 of shell pair            588
 mem total for path MDJ                  871004
 -------------------------------------------------------
 Smallest overlap matrix eigenvalue = 8.15E-07
 Linear dependence detected in AO basis
 Number of orthogonalized atomic orbitals = 280
 Maximum deviation from orthogonality = 3.200E-11
 Guess MOs from SCF MO coefficient file
 Reading MOs from coefficient file
 Reading MOs from coefficient file
 A restricted hybrid HF-DFT SCF calculation will be
 performed using Geometric Direct Minimization
 Exchange:     0.2000 Hartree-Fock + 0.0800 Slater + 0.7200 B88
 Correlation:  0.1900 VWN1RPA + 0.8100 LYP
 Using Euler-Maclaurin-Lebedev (99,590) quadrature formula
 SCF converges when RMS gradient is below 1.0E-08
Using Q-Chem read-in guess as SCF_GUESS READ specified.

 using 8 threads for integral computing
 -------------------------------------------------------
 OpenMP Integral computing Module                
 Release: version 2.0, May 2017, Q-Chem Inc. Pleasanton 
 -------------------------------------------------------
 LTot/LBra/LKet=          20          10          10
 LTot/LBra/LKet=          19           9          10
 LTot/LBra/LKet=          19           9          10
 LTot/LBra/LKet=          19           9          10
 LTot/LBra/LKet=          18           9           9
 LTot/LBra/LKet=          19           9          10
 LTot/LBra/LKet=          20          10          10

 Q-Chem warning:

 in GenH1, ket side, handled with new code


 Q-Chem warning:

 in GenH1, ket side, handled with new code


 Q-Chem warning:

 in GenH1, ket side, handled with new code


 Q-Chem warning:

 in GenH1, ket side, handled with new code

 LTot/LBra/LKet=          20          10          10

 Q-Chem warning:

 in GenH1, ket side, handled with new code


 Q-Chem warning:

 in GenH1, ket side, handled with new code


 Q-Chem warning:

 in GenH1, ket side, handled with new code


 Q-Chem warning:

 in GenH1, ket side, handled with new code

 LTot/LBra/LBra=          20          10          10

 Q-Chem warning:

 in GenH1, bra side, handled with new code

 LTot/LBra/LBra=          20          10          10

 Q-Chem warning:

 in GenH1, bra side, handled with new code

TIMEINFO->: J/JK contribution 335.67 sec.
 -------------------------------------------------------
 OpenMP BLAS3 based DFT computing Module                
 Release: version 1.0, May 2013, Q-Chem Inc. Pittsburgh 
 -------------------------------------------------------
 ---------------------------------------
  Cycle       Energy        RMS Gradient
 ---------------------------------------
    1     -15.2684057781      1.31E-03 Normal BFGS step
TIMEINFO->: J/JK contribution 335.32 sec.
    2     -15.2684068972      1.30E-03 Normal BFGS step
TIMEINFO->: J/JK contribution 332.36 sec.
    3     -15.2684076435      1.88E-04 Normal BFGS step
TIMEINFO->: J/JK contribution 332.01 sec.
    4     -15.2684076619      1.19E-04 Normal BFGS step
TIMEINFO->: J/JK contribution 332.53 sec.
    5     -15.2684076689      7.79E-06 Normal BFGS step
TIMEINFO->: J/JK contribution 329.94 sec.
    6     -15.2684076689      6.93E-06 Normal BFGS step
TIMEINFO->: J/JK contribution 324.92 sec.
    7     -15.2684076690      1.14E-06 Normal BFGS step
TIMEINFO->: J/JK contribution 322.79 sec.
    8     -15.2684076690      3.52E-07 Normal BFGS step
TIMEINFO->: J/JK contribution 319.24 sec.
    9     -15.2684076690      3.18E-08 Normal BFGS step
TIMEINFO->: J/JK contribution 309.54 sec.
   10     -15.2684076690      1.74E-08 Normal BFGS step
TIMEINFO->: J/JK contribution 296.53 sec.
   11     -15.2684076690      2.19E-09 Convergence criterion met
 ---------------------------------------
 B3LYP orbitals are now ready for the XYGJ-OS calculation.
 XYGJ-OS energy = Exch (0.7731 HF  + 0.2269 Slater) + 
                  Corr (0.2754 LYP + 0.2309 VWN1RPA + 0.4364 OS-MP2)
 SCF time:  CPU 3730.76 s  wall 469.99 s
 SCF   energy in the final basis set = -15.17264814
 Total energy in the final basis set = -15.17264814
 Entering Scaled Opposite Spin MP2
 NBasAux in rimp2.F =          197

 OS-MP2 job begins now...

 SOS scaling factor =  0.4
 Form (P|Q)**(-1/2)...

 Q-Chem fatal error occurred in module libmdc/qalloc.C, line 49:

 Illegal memory length in mega_alloc


 Please submit a crash report at q-chem.com/reporter 
 
 
 
User input: 5 of 7 
 
Q-Chem Developer Version!
                  Welcome to Q-Chem
     A Quantum Leap Into The Future Of Chemistry


 Q-Chem 5.1, Q-Chem, Inc., Pleasanton, CA (2018)

 Yihan Shao,  Zhengting Gan,  E. Epifanovsky,  A. T. B. Gilbert,  M. Wormit,  
 J. Kussmann,  A. W. Lange,  A. Behn,  Jia Deng,  Xintian Feng,  D. Ghosh,  
 M. Goldey,  P. R. Horn,  L. D. Jacobson,  I. Kaliman,  T. Kus,  A. Landau,  
 Jie Liu,  E. I. Proynov,  R. M. Richard,  R. P. Steele,  E. J. Sundstrom,  
 H. L. Woodcock III,  P. M. Zimmerman,  D. Zuev,  B. Albrecht,  E. Alguire,  
 S. A. Baeppler,  D. Barton,  Z. Benda,  Y. A. Bernard,  E. J. Berquist,  
 K. B. Bravaya,  H. Burton,  D. Casanova,  Chun-Min Chang,  Yunqing Chen,  
 A. Chien,  K. D. Closser,  M. P. Coons,  S. Coriani,  S. Dasgupta,  
 A. L. Dempwolff,  M. Diedenhofen,  Hainam Do,  R. G. Edgar,  Po-Tung Fang,  
 S. Faraji,  S. Fatehi,  Qingguo Feng,  K. D. Fenk,  J. Fosso-Tande,  
 Qinghui Ge,  A. Ghysels,  G. Gidofalvi,  J. Gomes,  J. Gonthier,  A. Gunina,  
 D. Hait,  M. W. D. Hanson-Heine,  P. H. P. Harbach,  A. W. Hauser,  
 J. E. Herr,  E. G. Hohenstein,  Z. C. Holden,  Kerwin Hui,  B. C. Huynh,  
 T.-C. Jagau,  Hyunjun Ji,  B. Kaduk,  K. Khistyaev,  Jaehoon Kim,  
 P. Klunzinger,  K. Koh,  D. Kosenkov,  L. Koulias,  T. Kowalczyk,  
 C. M. Krauter,  A. Kunitsa,  Ka Un Lao,  A. Laurent,  K. V. Lawler,  
 Joonho Lee,  D. Lefrancois,  S. Lehtola,  D. S. Levine,  Yi-Pei Li,  
 You-Sheng Lin,  Fenglai Liu,  E. Livshits,  A. Luenser,  P. Manohar,  
 E. Mansoor,  S. F. Manzer,  Shan-Ping Mao,  Yuezhi Mao,  N. Mardirossian,  
 A. V. Marenich,  T. Markovich,  L. A. Martinez-Martinez,  S. A. Maurer,  
 N. J. Mayhall,  S. C. McKenzie,  J.-M. Mewes,  A. F. Morrison,  
 J. W. Mullinax,  K. Nanda,  T. S. Nguyen-Beck,  R. Olivares-Amaya,  
 J. A. Parkhill,  T. M. Perrine,  F. Plasser,  P. Pokhilko,  S. Prager,  
 A. Prociuk,  E. Ramos,  D. R. Rehn,  F. Rob,  M. Schneider,  N. Sergueev,  
 S. M. Sharada,  S. Sharma,  D. W. Small,  T. Stauch,  T. Stein,  
 Yu-Chuan Su,  A. J. W. Thom,  A. Tkatchenko,  T. Tsuchimochi,  N. M. Tubman,  
 L. Vogt,  M. L. Vidal,  O. Vydrov,  M. A. Watson,  J. Wenzel,  
 M. de Wergifosse,  T. A. Wesolowski,  A. White,  J. Witte,  A. Yamada,  
 Jun Yang,  K. Yao,  S. Yeganeh,  S. R. Yost,  Zhi-Qiang You,  A. Zech,  
 Igor Ying Zhang,  Xing Zhang,  Yan Zhao,  Ying Zhu,  B. R. Brooks,  
 G. K. L. Chan,  C. J. Cramer,  M. S. Gordon,  W. J. Hehre,  A. Klamt,  
 M. W. Schmidt,  C. D. Sherrill,  D. G. Truhlar,  A. Aspuru-Guzik,  R. Baer,  
 A. T. Bell,  N. A. Besley,  Jeng-Da Chai,  A. E. DePrince, III,  
 R. A. DiStasio Jr.,  A. Dreuw,  B. D. Dunietz,  T. R. Furlani,  
 Chao-Ping Hsu,  Yousung Jung,  Jing Kong,  D. S. Lambrecht,  WanZhen Liang,  
 C. Ochsenfeld,  V. A. Rassolov,  L. V. Slipchenko,  J. E. Subotnik,  
 T. Van Voorhis,  J. M. Herbert,  A. I. Krylov,  P. M. W. Gill,  M. Head-Gordon

 Contributors to earlier versions of Q-Chem not listed above: 
 R. D. Adamson,  B. Austin,  J. Baker,  G. J. O. Beran,  K. Brandhorst,  
 S. T. Brown,  E. F. C. Byrd,  A. K. Chakraborty,  C.-L. Cheng,  
 Siu Hung Chien,  D. M. Chipman,  D. L. Crittenden,  H. Dachsel,  
 R. J. Doerksen,  A. D. Dutoi,  L. Fusti-Molnar,  W. A. Goddard III,  
 A. Golubeva-Zadorozhnaya,  S. R. Gwaltney,  G. Hawkins,  A. Heyden,  
 S. Hirata,  G. Kedziora,  F. J. Keil,  C. Kelley,  Jihan Kim,  R. A. King,  
 R. Z. Khaliullin,  P. P. Korambath,  W. Kurlancheek,  A. M. Lee,  M. S. Lee,  
 S. V. Levchenko,  Ching Yeh Lin,  D. Liotard,  R. C. Lochan,  I. Lotan,  
 P. E. Maslen,  N. Nair,  D. P. O'Neill,  D. Neuhauser,  E. Neuscamman,  
 C. M. Oana,  R. Olson,  B. Peters,  R. Peverati,  P. A. Pieniazek,  
 Y. M. Rhee,  J. Ritchie,  M. A. Rohrdanz,  E. Rosta,  N. J. Russ,  
 H. F. Schaefer III,  N. E. Schultz,  N. Shenvi,  A. C. Simmonett,  A. Sodt,  
 D. Stuck,  K. S. Thanthiriwatte,  V. Vanovschi,  Tao Wang,  A. Warshel,  
 C. F. Williams,  Q. Wu,  X. Xu,  W. Zhang

 Please cite Q-Chem as follows:
 Y. Shao et al., Mol. Phys. 113, 184-215 (2015)
 DOI: 10.1080/00268976.2014.952696

 Q-Chem 5.1.1 for Intel X86 EM64T Linux

 Parts of Q-Chem use Armadillo 8.300.2 (Tropical Shenanigans).
 http://arma.sourceforge.net/

 Q-Chem begins on Fri Oct 23 20:46:17 2020  

Host: n0035.mhg0
0

     Scratch files written to /local/scratch/users/yhljason/BeH_XYGJOS_aug-cc-pcV5Z.inp20201023194308//
The previous job contains 0 fragments, simply inherited here
Input Ideriv = 1
Curr. Ideriv = -1
Max.  Ideriv = 1

Checking the input file for inconsistencies... 	...done.

--------------------------------------------------------------
User input:
--------------------------------------------------------------
$molecule
read
$end

$rem

jobtype sp
exchange XYGJOS
xc_grid 000099000590
basis gen
aux_basis rimp2-cc-pVQZ
max_scf_cycles 200
thresh 14
scf_convergence 8
mem_total 128000
cc_memory 96000
cc_backend xm
mem_static 1500
symmetry false
sym_ignore true
scf_guess read
unrestricted false
scf_algorithm gdm
n_frozen_core 1000
$end

$basis
****
H
aug-cc-pCV5Z
****
Be     0
S   14   1.00
  54620.0000000              1.8000000e-05
   8180.0000000              1.3800000e-04
   1862.0000000              7.2300000e-04
    527.3000000              3.0390000e-03
    172.0000000              1.0908000e-02
     62.1000000              3.4035000e-02
     24.2100000              9.1193000e-02
      9.9930000              1.9926800e-01
      4.3050000              3.2935500e-01
      1.9210000              3.4048900e-01
      0.8663000              1.4374000e-01
      0.2475000              6.5170000e-03
      0.1009000             -1.8650000e-03
      0.0412900              4.8000000e-04
S   14   1.00
  54620.0000000             -3.0000000e-06
   8180.0000000             -2.5000000e-05
   1862.0000000             -1.3100000e-04
    527.3000000             -5.5800000e-04
    172.0000000             -1.9880000e-03
     62.1000000             -6.3700000e-03
     24.2100000             -1.7217000e-02
      9.9930000             -4.0858000e-02
      4.3050000             -7.4237000e-02
      1.9210000             -1.1923400e-01
      0.8663000             -8.7777000e-02
      0.2475000              2.7878800e-01
      0.1009000              5.8349900e-01
      0.0412900              2.6900700e-01
S   1   1.00
      0.8663000              1.0000000e+00
S   1   1.00
      0.2475000              1.0000000e+00
S   1   1.00
      0.1009000              1.0000000e+00
S   1   1.00
      0.0412900              1.0000000e+00
P   8   1.00
     43.7500000              6.3300000e-04
     10.3300000              4.8080000e-03
      3.2260000              2.0527000e-02
      1.1270000              6.7816000e-02
      0.4334000              1.9286800e-01
      0.1808000              3.7869200e-01
      0.0782700              4.0057400e-01
      0.0337200              1.3806700e-01
P   1   1.00
      0.4334000              1.0000000e+00
P   1   1.00
      0.1808000              1.0000000e+00
P   1   1.00
      0.0782700              1.0000000e+00
P   1   1.00
      0.0337200              1.0000000e+00
D   1   1.00
      1.7175000              1.0000000e+00
D   1   1.00
      0.7646000              1.0000000e+00
D   1   1.00
      0.3404000              1.0000000e+00
D   1   1.00
      0.1515000              1.0000000e+00
F   1   1.00
      0.6127000              1.0000000e+00
F   1   1.00
      0.3568000              1.0000000e+00
F   1   1.00
      0.2078000              1.0000000e+00
G   1   1.00
      0.5980000              1.0000000e+00
G   1   1.00
      0.3183000              1.0000000e+00
H   1   1.00
      0.5142000              1.0000000e+00
S   1   1.00
     51.1620000              1.0000000        
S   1   1.00
     23.1700000              1.0000000        
S   1   1.00
     10.4930000              1.0000000        
S   1   1.00
      4.7521000              1.0000000       
P   1   1.00
     56.4100000              1.0000000
P   1   1.00
     22.0430000              1.0000000
P   1   1.00
      8.6139000              1.0000000
P   1   1.00
      3.3661000              1.0000000
D   1   1.00
     41.4200000              1.0000000        
D   1   1.00
     15.6510000              1.0000000        
D   1   1.00
      5.9140000              1.0000000        
F   1   1.00
     24.1030000              1.0000000        
F   1   1.00
      7.6834000              1.0000000        
G   1   1.00
     15.8210000              1.0000000        
S   1   1.00
      0.0128000              1.0000000        
P   1   1.00
      0.0076000              1.0000000        
D   1   1.00
      0.0428000              1.0000000        
F   1   1.00
      0.0719000              1.0000000        
G   1   1.00
      0.0979000              1.0000000        
H   1   1.00
      0.2033000              1.0000000        
****
$end

$multipole_field
YY -0.0001
$end


--------------------------------------------------------------
 ----------------------------------------------------------------
             Standard Nuclear Orientation (Angstroms)
    I     Atom           X                Y                Z
 ----------------------------------------------------------------
    1      H       0.0000000000     0.0000000000     0.0000000000
    2      Be      0.0000000000     0.0000000000     1.3426000000
 ----------------------------------------------------------------
 Nuclear Repulsion Energy =     1.5765744400 hartrees
 There are        3 alpha and        2 beta electrons

 Q-Chem warning in module forms1/BasisType.C, line 1703:

 Setting pure/cartesian flag to 2111 for general basis


 Requested basis set is non-standard
 There are 61 shells and 281 basis functions

 Total QAlloc Memory Limit 128000 MB
 Mega-Array Size      1467 MB
 MEM_STATIC part      1500 MB

                       Distance Matrix (Angstroms)
             H (  1)
   Be(  2)  1.342600
 
 Applying Cartesian multipole field
    Component          Value
    ---------          -----
     (0,2,0)       -1.00000E-04
 Requested basis set is rimp2-cc-pVQZ
 There are 45 shells and 197 basis functions
 A cutoff of  1.0D-14 yielded   1891 shell pairs
 There are     40611 function pairs (     65226 Cartesian)
 
 -------------------------------------------------------
 OpenMP Integral Computing Module                       
 Release: version 1.0, May 2013, Q-Chem Inc. Pittsburgh 
 -------------------------------------------------------
 Integral Job Info:
 Integral job number is                      11
 Integral operator is                         1
 short-range coefficients                     0
 long-range coefficients              100000000
 Omega coefficients                           0
 if combine SR and LR in K                    0
 Integral screening is                        0
 Integral computing path is                   2
 max size of driver memory is           6400000
[...]

 using 8 threads for integral computing
 -------------------------------------------------------
 OpenMP Integral computing Module                
 Release: version 2.0, May 2017, Q-Chem Inc. Pleasanton 
 -------------------------------------------------------
 LTot/LBra/LKet=          18           9           9
 LTot/LBra/LKet=          19           9          10
 LTot/LBra/LKet=          19           9          10
 LTot/LBra/LKet=          20          10          10
 LTot/LBra/LKet=          19           9          10

 Q-Chem warning:

 in GenH1, ket side, handled with new code

 LTot/LBra/LKet=          20          10          10

 Q-Chem warning:

 in GenH1, ket side, handled with new code


 Q-Chem warning:

 in GenH1, ket side, handled with new code


 Q-Chem warning:

 in GenH1, ket side, handled with new code


 Q-Chem warning:

 in GenH1, ket side, handled with new code


 Q-Chem warning:

 in GenH1, ket side, handled with new code

 LTot/LBra/LKet=          19           9          10
 LTot/LBra/LKet=          20          10          10

 Q-Chem warning:

 in GenH1, ket side, handled with new code


 Q-Chem warning:

 in GenH1, ket side, handled with new code

 LTot/LBra/LBra=          18           9           9

 Q-Chem warning:

 in GenH1, bra side, handled with new code

TIMEINFO->: J/JK contribution 334.78 sec.
 -------------------------------------------------------
 OpenMP BLAS3 based DFT computing Module                
 Release: version 1.0, May 2013, Q-Chem Inc. Pittsburgh 
 -------------------------------------------------------
 ---------------------------------------
  Cycle       Energy        RMS Gradient
 ---------------------------------------
    1     -15.2686567178      2.90E-03 Normal BFGS step
TIMEINFO->: J/JK contribution 334.89 sec.
    2     -15.2686612917      2.17E-03 Normal BFGS step
TIMEINFO->: J/JK contribution 334.03 sec.
    3     -15.2686635781      4.92E-04 Normal BFGS step
TIMEINFO->: J/JK contribution 333.67 sec.
    4     -15.2686636400      2.79E-04 Normal BFGS step
TIMEINFO->: J/JK contribution 332.97 sec.
    5     -15.2686636860      2.33E-05 Normal BFGS step
TIMEINFO->: J/JK contribution 330.49 sec.
    6     -15.2686636861      2.27E-05 Normal BFGS step
TIMEINFO->: J/JK contribution 327.37 sec.
    7     -15.2686636863      9.57E-07 Normal BFGS step
TIMEINFO->: J/JK contribution 324.49 sec.
    8     -15.2686636863      8.40E-07 Normal BFGS step
TIMEINFO->: J/JK contribution 320.62 sec.
    9     -15.2686636863      1.14E-07 Normal BFGS step
TIMEINFO->: J/JK contribution 313.78 sec.
   GDM::WARNING energy changes are now smaller than effective accuracy.
   GDM::        calculation will continue, but THRESH should be increased
   GDM::        or SCF_CONVERGENCE decreased.
   GDM::        effective_thresh =   1.997167153877655E-009
   10     -15.2686636863      3.71E-08 Normal BFGS step
TIMEINFO->: J/JK contribution 306.49 sec.
   11     -15.2686636863      1.81E-09 Convergence criterion met
 ---------------------------------------
 B3LYP orbitals are now ready for the XYGJ-OS calculation.
 XYGJ-OS energy = Exch (0.7731 HF  + 0.2269 Slater) + 
                  Corr (0.2754 LYP + 0.2309 VWN1RPA + 0.4364 OS-MP2)
 SCF time:  CPU 3754.13 s  wall 473.07 s
 SCF   energy in the final basis set = -15.17294142
 Total energy in the final basis set = -15.17294142
 Entering Scaled Opposite Spin MP2
 NBasAux in rimp2.F =          197

 OS-MP2 job begins now...

 SOS scaling factor =  0.4
 Form (P|Q)**(-1/2)...

 Q-Chem fatal error occurred in module libmdc/qalloc.C, line 49:

 Illegal memory length in mega_alloc


 Please submit a crash report at q-chem.com/reporter 
 
 
 
User input: 7 of 7 
 
Q-Chem Developer Version!
                  Welcome to Q-Chem
     A Quantum Leap Into The Future Of Chemistry


 Q-Chem 5.1, Q-Chem, Inc., Pleasanton, CA (2018)

 Yihan Shao,  Zhengting Gan,  E. Epifanovsky,  A. T. B. Gilbert,  M. Wormit,  
 J. Kussmann,  A. W. Lange,  A. Behn,  Jia Deng,  Xintian Feng,  D. Ghosh,  
 M. Goldey,  P. R. Horn,  L. D. Jacobson,  I. Kaliman,  T. Kus,  A. Landau,  
 Jie Liu,  E. I. Proynov,  R. M. Richard,  R. P. Steele,  E. J. Sundstrom,  
 H. L. Woodcock III,  P. M. Zimmerman,  D. Zuev,  B. Albrecht,  E. Alguire,  
 S. A. Baeppler,  D. Barton,  Z. Benda,  Y. A. Bernard,  E. J. Berquist,  
 K. B. Bravaya,  H. Burton,  D. Casanova,  Chun-Min Chang,  Yunqing Chen,  
 A. Chien,  K. D. Closser,  M. P. Coons,  S. Coriani,  S. Dasgupta,  
 A. L. Dempwolff,  M. Diedenhofen,  Hainam Do,  R. G. Edgar,  Po-Tung Fang,  
 S. Faraji,  S. Fatehi,  Qingguo Feng,  K. D. Fenk,  J. Fosso-Tande,  
 Qinghui Ge,  A. Ghysels,  G. Gidofalvi,  J. Gomes,  J. Gonthier,  A. Gunina,  
 D. Hait,  M. W. D. Hanson-Heine,  P. H. P. Harbach,  A. W. Hauser,  
 J. E. Herr,  E. G. Hohenstein,  Z. C. Holden,  Kerwin Hui,  B. C. Huynh,  
 T.-C. Jagau,  Hyunjun Ji,  B. Kaduk,  K. Khistyaev,  Jaehoon Kim,  
 P. Klunzinger,  K. Koh,  D. Kosenkov,  L. Koulias,  T. Kowalczyk,  
 C. M. Krauter,  A. Kunitsa,  Ka Un Lao,  A. Laurent,  K. V. Lawler,  
 Joonho Lee,  D. Lefrancois,  S. Lehtola,  D. S. Levine,  Yi-Pei Li,  
 You-Sheng Lin,  Fenglai Liu,  E. Livshits,  A. Luenser,  P. Manohar,  
 E. Mansoor,  S. F. Manzer,  Shan-Ping Mao,  Yuezhi Mao,  N. Mardirossian,  
 A. V. Marenich,  T. Markovich,  L. A. Martinez-Martinez,  S. A. Maurer,  
 N. J. Mayhall,  S. C. McKenzie,  J.-M. Mewes,  A. F. Morrison,  
 J. W. Mullinax,  K. Nanda,  T. S. Nguyen-Beck,  R. Olivares-Amaya,  
 J. A. Parkhill,  T. M. Perrine,  F. Plasser,  P. Pokhilko,  S. Prager,  
 A. Prociuk,  E. Ramos,  D. R. Rehn,  F. Rob,  M. Schneider,  N. Sergueev,  
 S. M. Sharada,  S. Sharma,  D. W. Small,  T. Stauch,  T. Stein,  
 Yu-Chuan Su,  A. J. W. Thom,  A. Tkatchenko,  T. Tsuchimochi,  N. M. Tubman,  
 L. Vogt,  M. L. Vidal,  O. Vydrov,  M. A. Watson,  J. Wenzel,  
 M. de Wergifosse,  T. A. Wesolowski,  A. White,  J. Witte,  A. Yamada,  
 Jun Yang,  K. Yao,  S. Yeganeh,  S. R. Yost,  Zhi-Qiang You,  A. Zech,  
 Igor Ying Zhang,  Xing Zhang,  Yan Zhao,  Ying Zhu,  B. R. Brooks,  
 G. K. L. Chan,  C. J. Cramer,  M. S. Gordon,  W. J. Hehre,  A. Klamt,  
 M. W. Schmidt,  C. D. Sherrill,  D. G. Truhlar,  A. Aspuru-Guzik,  R. Baer,  
 A. T. Bell,  N. A. Besley,  Jeng-Da Chai,  A. E. DePrince, III,  
 R. A. DiStasio Jr.,  A. Dreuw,  B. D. Dunietz,  T. R. Furlani,  
 Chao-Ping Hsu,  Yousung Jung,  Jing Kong,  D. S. Lambrecht,  WanZhen Liang,  
 C. Ochsenfeld,  V. A. Rassolov,  L. V. Slipchenko,  J. E. Subotnik,  
 T. Van Voorhis,  J. M. Herbert,  A. I. Krylov,  P. M. W. Gill,  M. Head-Gordon

 Contributors to earlier versions of Q-Chem not listed above: 
 R. D. Adamson,  B. Austin,  J. Baker,  G. J. O. Beran,  K. Brandhorst,  
 S. T. Brown,  E. F. C. Byrd,  A. K. Chakraborty,  C.-L. Cheng,  
 Siu Hung Chien,  D. M. Chipman,  D. L. Crittenden,  H. Dachsel,  
 R. J. Doerksen,  A. D. Dutoi,  L. Fusti-Molnar,  W. A. Goddard III,  
 A. Golubeva-Zadorozhnaya,  S. R. Gwaltney,  G. Hawkins,  A. Heyden,  
 S. Hirata,  G. Kedziora,  F. J. Keil,  C. Kelley,  Jihan Kim,  R. A. King,  
 R. Z. Khaliullin,  P. P. Korambath,  W. Kurlancheek,  A. M. Lee,  M. S. Lee,  
 S. V. Levchenko,  Ching Yeh Lin,  D. Liotard,  R. C. Lochan,  I. Lotan,  
 P. E. Maslen,  N. Nair,  D. P. O'Neill,  D. Neuhauser,  E. Neuscamman,  
 C. M. Oana,  R. Olson,  B. Peters,  R. Peverati,  P. A. Pieniazek,  
 Y. M. Rhee,  J. Ritchie,  M. A. Rohrdanz,  E. Rosta,  N. J. Russ,  
 H. F. Schaefer III,  N. E. Schultz,  N. Shenvi,  A. C. Simmonett,  A. Sodt,  
 D. Stuck,  K. S. Thanthiriwatte,  V. Vanovschi,  Tao Wang,  A. Warshel,  
 C. F. Williams,  Q. Wu,  X. Xu,  W. Zhang

 Please cite Q-Chem as follows:
 Y. Shao et al., Mol. Phys. 113, 184-215 (2015)
 DOI: 10.1080/00268976.2014.952696

 Q-Chem 5.1.1 for Intel X86 EM64T Linux

 Parts of Q-Chem use Armadillo 8.300.2 (Tropical Shenanigans).
 http://arma.sourceforge.net/

 Q-Chem begins on Fri Oct 23 21:02:09 2020  

Host: n0035.mhg0
0

     Scratch files written to /local/scratch/users/yhljason/BeH_XYGJOS_aug-cc-pcV5Z.inp20201023194308//
The previous job contains 0 fragments, simply inherited here
Input Ideriv = 1
Curr. Ideriv = -1
Max.  Ideriv = 1

Checking the input file for inconsistencies... 	...done.

--------------------------------------------------------------
User input:
--------------------------------------------------------------
$molecule
read
$end

$rem

jobtype sp
exchange XYGJOS
xc_grid 000099000590
basis gen
aux_basis rimp2-cc-pVQZ
max_scf_cycles 200
thresh 14
scf_convergence 8
mem_total 128000
cc_memory 96000
cc_backend xm
mem_static 1500
symmetry false
sym_ignore true
scf_guess read
unrestricted false
scf_algorithm gdm
n_frozen_core 1000
$end

$basis
****
H
aug-cc-pCV5Z
****
Be     0
S   14   1.00
  54620.0000000              1.8000000e-05
   8180.0000000              1.3800000e-04
   1862.0000000              7.2300000e-04
    527.3000000              3.0390000e-03
    172.0000000              1.0908000e-02
     62.1000000              3.4035000e-02
     24.2100000              9.1193000e-02
      9.9930000              1.9926800e-01
      4.3050000              3.2935500e-01
      1.9210000              3.4048900e-01
      0.8663000              1.4374000e-01
      0.2475000              6.5170000e-03
      0.1009000             -1.8650000e-03
      0.0412900              4.8000000e-04
S   14   1.00
  54620.0000000             -3.0000000e-06
   8180.0000000             -2.5000000e-05
   1862.0000000             -1.3100000e-04
    527.3000000             -5.5800000e-04
    172.0000000             -1.9880000e-03
     62.1000000             -6.3700000e-03
     24.2100000             -1.7217000e-02
      9.9930000             -4.0858000e-02
      4.3050000             -7.4237000e-02
      1.9210000             -1.1923400e-01
      0.8663000             -8.7777000e-02
      0.2475000              2.7878800e-01
      0.1009000              5.8349900e-01
      0.0412900              2.6900700e-01
S   1   1.00
      0.8663000              1.0000000e+00
S   1   1.00
      0.2475000              1.0000000e+00
S   1   1.00
      0.1009000              1.0000000e+00
S   1   1.00
      0.0412900              1.0000000e+00
P   8   1.00
     43.7500000              6.3300000e-04
     10.3300000              4.8080000e-03
      3.2260000              2.0527000e-02
      1.1270000              6.7816000e-02
      0.4334000              1.9286800e-01
      0.1808000              3.7869200e-01
      0.0782700              4.0057400e-01
      0.0337200              1.3806700e-01
P   1   1.00
      0.4334000              1.0000000e+00
P   1   1.00
      0.1808000              1.0000000e+00
P   1   1.00
      0.0782700              1.0000000e+00
P   1   1.00
      0.0337200              1.0000000e+00
D   1   1.00
      1.7175000              1.0000000e+00
D   1   1.00
      0.7646000              1.0000000e+00
D   1   1.00
      0.3404000              1.0000000e+00
D   1   1.00
      0.1515000              1.0000000e+00
F   1   1.00
      0.6127000              1.0000000e+00
F   1   1.00
      0.3568000              1.0000000e+00
F   1   1.00
      0.2078000              1.0000000e+00
G   1   1.00
      0.5980000              1.0000000e+00
G   1   1.00
      0.3183000              1.0000000e+00
H   1   1.00
      0.5142000              1.0000000e+00
S   1   1.00
     51.1620000              1.0000000        
S   1   1.00
     23.1700000              1.0000000        
S   1   1.00
     10.4930000              1.0000000        
S   1   1.00
      4.7521000              1.0000000       
P   1   1.00
     56.4100000              1.0000000
P   1   1.00
     22.0430000              1.0000000
P   1   1.00
      8.6139000              1.0000000
P   1   1.00
      3.3661000              1.0000000
D   1   1.00
     41.4200000              1.0000000        
D   1   1.00
     15.6510000              1.0000000        
D   1   1.00
      5.9140000              1.0000000        
F   1   1.00
     24.1030000              1.0000000        
F   1   1.00
      7.6834000              1.0000000        
G   1   1.00
     15.8210000              1.0000000        
S   1   1.00
      0.0128000              1.0000000        
P   1   1.00
      0.0076000              1.0000000        
D   1   1.00
      0.0428000              1.0000000        
F   1   1.00
      0.0719000              1.0000000        
G   1   1.00
      0.0979000              1.0000000        
H   1   1.00
      0.2033000              1.0000000        
****
$end

$multipole_field
ZZ -0.0001
$end

--------------------------------------------------------------
 ----------------------------------------------------------------
             Standard Nuclear Orientation (Angstroms)
    I     Atom           X                Y                Z
 ----------------------------------------------------------------
    1      H       0.0000000000     0.0000000000     0.0000000000
    2      Be      0.0000000000     0.0000000000     1.3426000000
 ----------------------------------------------------------------
 Nuclear Repulsion Energy =     1.5765744400 hartrees
 There are        3 alpha and        2 beta electrons

 Q-Chem warning in module forms1/BasisType.C, line 1703:

 Setting pure/cartesian flag to 2111 for general basis


 Requested basis set is non-standard
 There are 61 shells and 281 basis functions

 Total QAlloc Memory Limit 128000 MB
 Mega-Array Size      1467 MB
 MEM_STATIC part      1500 MB

                       Distance Matrix (Angstroms)
             H (  1)
   Be(  2)  1.342600
 
 Applying Cartesian multipole field
    Component          Value
    ---------          -----
     (0,0,2)       -1.00000E-04
 Nucleus-field energy     =    -0.0025748445 hartrees
 Requested basis set is rimp2-cc-pVQZ
 There are 45 shells and 197 basis functions
 A cutoff of  1.0D-14 yielded   1891 shell pairs
 There are     40611 function pairs (     65226 Cartesian)
 
 -------------------------------------------------------
 OpenMP Integral Computing Module                       
 Release: version 1.0, May 2013, Q-Chem Inc. Pittsburgh 
 -------------------------------------------------------
 Integral Job Info:
 Integral job number is                      11
 Integral operator is                         1
 short-range coefficients                     0
 long-range coefficients              100000000
 Omega coefficients                           0
 if combine SR and LR in K                    0
 Integral screening is                        0
 Integral computing path is                   2
 max size of driver memory is           6400000
 size of driver memory is               5498286
 size of scratch memory is             28716118
 max col of scratch BK array             194481
 max len of scratch array in speh3         5572
 max len of scratch index in speh4           72
 max int batch size is                      520
 min int batch size is                       52
 fixed nKL is                                14
 max L of basis functions is                  5
 order of int derivative is                   0
 number of shells is                         61
 number of basis is                         356
 number of cartesian basis is               356
 number of contracted shell pairs          1891
 number of primitive shell pairs           4883
 maxK2 (contraction) of shell pair          196
 max number of K2 of shell pair               1
 max number of CS2 of shell pair            198
 max number of PS2 of shell pair            588
 mem total for path MDJ                  871004
 -------------------------------------------------------
 Smallest overlap matrix eigenvalue = 8.15E-07
 Linear dependence detected in AO basis
 Number of orthogonalized atomic orbitals = 280
 Maximum deviation from orthogonality = 3.200E-11
 Guess MOs from SCF MO coefficient file
 Reading MOs from coefficient file
 Reading MOs from coefficient file
 A restricted hybrid HF-DFT SCF calculation will be
 performed using Geometric Direct Minimization
 Exchange:     0.2000 Hartree-Fock + 0.0800 Slater + 0.7200 B88
 Correlation:  0.1900 VWN1RPA + 0.8100 LYP
 Using Euler-Maclaurin-Lebedev (99,590) quadrature formula
 SCF converges when RMS gradient is below 1.0E-08
Using Q-Chem read-in guess as SCF_GUESS READ specified.

 using 8 threads for integral computing
 -------------------------------------------------------
 OpenMP Integral computing Module                
 Release: version 2.0, May 2017, Q-Chem Inc. Pleasanton 
 -------------------------------------------------------
 LTot/LBra/LKet=          18           9           9
 LTot/LBra/LKet=          20          10          10
 LTot/LBra/LKet=          19           9          10
 LTot/LBra/LKet=          19           9          10
 LTot/LBra/LKet=          19           9          10

 Q-Chem warning:

 in GenH1, ket side, handled with new code


 Q-Chem warning:

 in GenH1, ket side, handled with new code

 LTot/LBra/LKet=          20          10          10
 LTot/LBra/LKet=          19           9          10

 Q-Chem warning:

 in GenH1, ket side, handled with new code

 LTot/LBra/LKet=          20          10          10

 Q-Chem warning:

 in GenH1, ket side, handled with new code


 Q-Chem warning:

 in GenH1, ket side, handled with new code


 Q-Chem warning:

 in GenH1, ket side, handled with new code


 Q-Chem warning:

 in GenH1, ket side, handled with new code


 Q-Chem warning:

 in GenH1, ket side, handled with new code

 LTot/LBra/LBra=          18           9           9

 Q-Chem warning:

 in GenH1, bra side, handled with new code

TIMEINFO->: J/JK contribution 334.91 sec.
 -------------------------------------------------------
 OpenMP BLAS3 based DFT computing Module                
 Release: version 1.0, May 2013, Q-Chem Inc. Pittsburgh 
 -------------------------------------------------------
 ---------------------------------------
  Cycle       Energy        RMS Gradient
 ---------------------------------------
    1     -15.2671345130      5.79E-03 Normal BFGS step
TIMEINFO->: J/JK contribution 335.00 sec.
    2     -15.2671524432      2.55E-03 Normal BFGS step
TIMEINFO->: J/JK contribution 333.26 sec.
    3     -15.2671572544      4.63E-04 Normal BFGS step
TIMEINFO->: J/JK contribution 332.92 sec.
    4     -15.2671573344      2.55E-04 Normal BFGS step
TIMEINFO->: J/JK contribution 330.56 sec.
    5     -15.2671573802      1.63E-05 Normal BFGS step
TIMEINFO->: J/JK contribution 328.80 sec.
    6     -15.2671573804      1.22E-05 Normal BFGS step
TIMEINFO->: J/JK contribution 325.51 sec.
    7     -15.2671573805      2.32E-06 Normal BFGS step
TIMEINFO->: J/JK contribution 326.16 sec.
    8     -15.2671573805      6.08E-07 Normal BFGS step
TIMEINFO->: J/JK contribution 322.73 sec.
    9     -15.2671573805      1.21E-07 Normal BFGS step
TIMEINFO->: J/JK contribution 310.32 sec.
   10     -15.2671573805      4.76E-08 Normal BFGS step
TIMEINFO->: J/JK contribution 302.59 sec.
   GDM::WARNING energy changes are now smaller than effective accuracy.
   GDM::        calculation will continue, but THRESH should be increased
   GDM::        or SCF_CONVERGENCE decreased.
   GDM::        effective_thresh =   2.649988811720405E-009
   11     -15.2671573805      3.55E-09 Convergence criterion met
 ---------------------------------------
 B3LYP orbitals are now ready for the XYGJ-OS calculation.
 XYGJ-OS energy = Exch (0.7731 HF  + 0.2269 Slater) + 
                  Corr (0.2754 LYP + 0.2309 VWN1RPA + 0.4364 OS-MP2)
 SCF time:  CPU 3741.53 s  wall 471.46 s
 SCF   energy in the final basis set = -15.17138179
 Total energy in the final basis set = -15.17138179
 Entering Scaled Opposite Spin MP2
 NBasAux in rimp2.F =          197

 OS-MP2 job begins now...

 SOS scaling factor =  0.4
 Form (P|Q)**(-1/2)...

 Q-Chem fatal error occurred in module libmdc/qalloc.C, line 49:

 Illegal memory length in mega_alloc


 Please submit a crash report at q-chem.com/reporter 
 
 
