Q-Chem Developer Version!
                  Welcome to Q-Chem
     A Quantum Leap Into The Future Of Chemistry


 Q-Chem 5.1, Q-Chem, Inc., Pleasanton, CA (2018)

 Yihan Shao,  Zhengting Gan,  E. Epifanovsky,  A. T. B. Gilbert,  M. Wormit,  
 J. Kussmann,  A. W. Lange,  A. Behn,  Jia Deng,  Xintian Feng,  D. Ghosh,  
 M. Goldey,  P. R. Horn,  L. D. Jacobson,  I. Kaliman,  T. Kus,  A. Landau,  
 Jie Liu,  E. I. Proynov,  R. M. Richard,  R. P. Steele,  E. J. Sundstrom,  
 H. L. Woodcock III,  P. M. Zimmerman,  D. Zuev,  B. Albrecht,  E. Alguire,  
 S. A. Baeppler,  D. Barton,  Z. Benda,  Y. A. Bernard,  E. J. Berquist,  
 K. B. Bravaya,  H. Burton,  D. Casanova,  Chun-Min Chang,  Yunqing Chen,  
 A. Chien,  K. D. Closser,  M. P. Coons,  S. Coriani,  S. Dasgupta,  
 A. L. Dempwolff,  M. Diedenhofen,  Hainam Do,  R. G. Edgar,  Po-Tung Fang,  
 S. Faraji,  S. Fatehi,  Qingguo Feng,  K. D. Fenk,  J. Fosso-Tande,  
 Qinghui Ge,  A. Ghysels,  G. Gidofalvi,  J. Gomes,  J. Gonthier,  A. Gunina,  
 D. Hait,  M. W. D. Hanson-Heine,  P. H. P. Harbach,  A. W. Hauser,  
 J. E. Herr,  E. G. Hohenstein,  Z. C. Holden,  Kerwin Hui,  B. C. Huynh,  
 T.-C. Jagau,  Hyunjun Ji,  B. Kaduk,  K. Khistyaev,  Jaehoon Kim,  
 P. Klunzinger,  K. Koh,  D. Kosenkov,  L. Koulias,  T. Kowalczyk,  
 C. M. Krauter,  A. Kunitsa,  Ka Un Lao,  A. Laurent,  K. V. Lawler,  
 Joonho Lee,  D. Lefrancois,  S. Lehtola,  D. S. Levine,  Yi-Pei Li,  
 You-Sheng Lin,  Fenglai Liu,  E. Livshits,  A. Luenser,  P. Manohar,  
 E. Mansoor,  S. F. Manzer,  Shan-Ping Mao,  Yuezhi Mao,  N. Mardirossian,  
 A. V. Marenich,  T. Markovich,  L. A. Martinez-Martinez,  S. A. Maurer,  
 N. J. Mayhall,  S. C. McKenzie,  J.-M. Mewes,  A. F. Morrison,  
 J. W. Mullinax,  K. Nanda,  T. S. Nguyen-Beck,  R. Olivares-Amaya,  
 J. A. Parkhill,  T. M. Perrine,  F. Plasser,  P. Pokhilko,  S. Prager,  
 A. Prociuk,  E. Ramos,  D. R. Rehn,  F. Rob,  M. Schneider,  N. Sergueev,  
 S. M. Sharada,  S. Sharma,  D. W. Small,  T. Stauch,  T. Stein,  
 Yu-Chuan Su,  A. J. W. Thom,  A. Tkatchenko,  T. Tsuchimochi,  N. M. Tubman,  
 L. Vogt,  M. L. Vidal,  O. Vydrov,  M. A. Watson,  J. Wenzel,  
 M. de Wergifosse,  T. A. Wesolowski,  A. White,  J. Witte,  A. Yamada,  
 Jun Yang,  K. Yao,  S. Yeganeh,  S. R. Yost,  Zhi-Qiang You,  A. Zech,  
 Igor Ying Zhang,  Xing Zhang,  Yan Zhao,  Ying Zhu,  B. R. Brooks,  
 G. K. L. Chan,  C. J. Cramer,  M. S. Gordon,  W. J. Hehre,  A. Klamt,  
 M. W. Schmidt,  C. D. Sherrill,  D. G. Truhlar,  A. Aspuru-Guzik,  R. Baer,  
 A. T. Bell,  N. A. Besley,  Jeng-Da Chai,  A. E. DePrince, III,  
 R. A. DiStasio Jr.,  A. Dreuw,  B. D. Dunietz,  T. R. Furlani,  
 Chao-Ping Hsu,  Yousung Jung,  Jing Kong,  D. S. Lambrecht,  WanZhen Liang,  
 C. Ochsenfeld,  V. A. Rassolov,  L. V. Slipchenko,  J. E. Subotnik,  
 T. Van Voorhis,  J. M. Herbert,  A. I. Krylov,  P. M. W. Gill,  M. Head-Gordon

 Contributors to earlier versions of Q-Chem not listed above: 
 R. D. Adamson,  B. Austin,  J. Baker,  G. J. O. Beran,  K. Brandhorst,  
 S. T. Brown,  E. F. C. Byrd,  A. K. Chakraborty,  C.-L. Cheng,  
 Siu Hung Chien,  D. M. Chipman,  D. L. Crittenden,  H. Dachsel,  
 R. J. Doerksen,  A. D. Dutoi,  L. Fusti-Molnar,  W. A. Goddard III,  
 A. Golubeva-Zadorozhnaya,  S. R. Gwaltney,  G. Hawkins,  A. Heyden,  
 S. Hirata,  G. Kedziora,  F. J. Keil,  C. Kelley,  Jihan Kim,  R. A. King,  
 R. Z. Khaliullin,  P. P. Korambath,  W. Kurlancheek,  A. M. Lee,  M. S. Lee,  
 S. V. Levchenko,  Ching Yeh Lin,  D. Liotard,  R. C. Lochan,  I. Lotan,  
 P. E. Maslen,  N. Nair,  D. P. O'Neill,  D. Neuhauser,  E. Neuscamman,  
 C. M. Oana,  R. Olson,  B. Peters,  R. Peverati,  P. A. Pieniazek,  
 Y. M. Rhee,  J. Ritchie,  M. A. Rohrdanz,  E. Rosta,  N. J. Russ,  
 H. F. Schaefer III,  N. E. Schultz,  N. Shenvi,  A. C. Simmonett,  A. Sodt,  
 D. Stuck,  K. S. Thanthiriwatte,  V. Vanovschi,  Tao Wang,  A. Warshel,  
 C. F. Williams,  Q. Wu,  X. Xu,  W. Zhang

 Please cite Q-Chem as follows:
 Y. Shao et al., Mol. Phys. 113, 184-215 (2015)
 DOI: 10.1080/00268976.2014.952696

 Q-Chem 5.1.1 for Intel X86 EM64T Linux

 Parts of Q-Chem use Armadillo 8.300.2 (Tropical Shenanigans).
 http://arma.sourceforge.net/

 Q-Chem begins on Wed Oct 21 03:28:41 2020  

Host: n0065.mhg0
0

     Scratch files written to /local/scratch/users/yhljason/C2H2_XYGJOS_aug-cc-pcVTZ.inp20201021032837//
Input Ideriv = 2
Curr. Ideriv = -1
Max.  Ideriv = 2

Checking the input file for inconsistencies... 	...done.

--------------------------------------------------------------
User input:
--------------------------------------------------------------
$molecule 
0 1
C1	0.0000	0.0000	0.6013
C2	0.0000	0.0000	-0.6013
H3	0.0000	0.0000	1.6644
H4	0.0000	0.0000	-1.6644
$end

$rem
jobtype sp
exchange XYGJOS
xc_grid 000099000590
basis aug-cc-pcVTZ
aux_basis rimp2-aug-cc-pVTZ
max_scf_cycles 200
thresh 14
scf_convergence 8
scf_algorithm gdm
symmetry false
sym_ignore true
unrestricted false
gen_scfman false
internal_stability_iter 15
internal_stability_davidson_iter 200
mem_total 128000
cc_memory 96000
cc_backend xm
mem_static 1500
n_frozen_core 0
$end



--------------------------------------------------------------
 ----------------------------------------------------------------
             Standard Nuclear Orientation (Angstroms)
    I     Atom           X                Y                Z
 ----------------------------------------------------------------
    1      C       0.0000000000     0.0000000000     0.6013000000
    2      C       0.0000000000     0.0000000000    -0.6013000000
    3      H       0.0000000000     0.0000000000     1.6644000000
    4      H       0.0000000000     0.0000000000    -1.6644000000
 ----------------------------------------------------------------
 Nuclear Repulsion Energy =    24.7759017844 hartrees
 There are        7 alpha and        7 beta electrons
 Requested basis set is aug-cc-pCVTZ
 There are 56 shells and 164 basis functions

 Total QAlloc Memory Limit 128000 MB
 Mega-Array Size      1467 MB
 MEM_STATIC part      1500 MB

                       Distance Matrix (Angstroms)
             C (  1)   C (  2)   H (  3)
   C (  2)  1.202600
   H (  3)  1.063100  2.265700
   H (  4)  2.265700  1.063100  3.328800
 
 Requested basis set is rimp2-aug-cc-pVTZ
 There are 84 shells and 304 basis functions
 A cutoff of  1.0D-14 yielded   1591 shell pairs
 There are     13743 function pairs (     18129 Cartesian)
 
 -------------------------------------------------------
 OpenMP Integral Computing Module                       
 Release: version 1.0, May 2013, Q-Chem Inc. Pittsburgh 
 -------------------------------------------------------
 Integral Job Info:
 Integral job number is                      11
 Integral operator is                         1
 short-range coefficients                     0
 long-range coefficients              100000000
 Omega coefficients                           0
 if combine SR and LR in K                    0
 Integral screening is                        0
 Integral computing path is                   2
 max size of driver memory is            800000
 size of driver memory is                776718
 size of scratch memory is              6691272
 max col of scratch BK array              10000
 max len of scratch array in speh3          662
 max len of scratch index in speh4           32
 max int batch size is                      520
 min int batch size is                       52
 fixed nKL is                                52
 max L of basis functions is                  3
 order of int derivative is                   0
 number of shells is                         56
 number of basis is                         188
 number of cartesian basis is               188
 number of contracted shell pairs          1591
 number of primitive shell pairs           4026
 maxK2 (contraction) of shell pair           64
 max number of K2 of shell pair               1
 max number of CS2 of shell pair            260
 max number of PS2 of shell pair            480
 mem total for path MDJ                  562704
 -------------------------------------------------------
 Smallest overlap matrix eigenvalue = 8.25E-06

 Scale SEOQF with 1.000000e-01/1.000000e-01/1.000000e-01

 Standard Electronic Orientation quadrupole field applied
 Nucleus-field energy     =    -0.0000000011 hartrees
 Guess from superposition of atomic densities
 Warning:  Energy on first SCF cycle will be non-variational
 SAD guess density has 14.000000 electrons
 A restricted hybrid HF-DFT SCF calculation will be
 performed using Pulay DIIS + Geometric Direct Minimization
 Exchange:     0.2000 Hartree-Fock + 0.0800 Slater + 0.7200 B88
 Correlation:  0.1900 VWN1RPA + 0.8100 LYP
 Using Euler-Maclaurin-Lebedev (99,590) quadrature formula
 SCF converges when RMS gradient is below 1.0E-08
 using 8 threads for integral computing
 -------------------------------------------------------
 OpenMP Integral computing Module                
 Release: version 2.0, May 2017, Q-Chem Inc. Pleasanton 
 -------------------------------------------------------
TIMEINFO->: J/JK contribution 7.06 sec.
 -------------------------------------------------------
 OpenMP BLAS3 based DFT computing Module                
 Release: version 1.0, May 2013, Q-Chem Inc. Pittsburgh 
 -------------------------------------------------------
 ---------------------------------------
  Cycle       Energy        RMS Gradient
 ---------------------------------------
    1     -77.5239270688      2.67E-02 Done DIIS. Switching to GDM
TIMEINFO->: J/JK contribution 14.97 sec.
    2     -77.2985017529      1.10E-01 Descent step
TIMEINFO->: J/JK contribution 14.62 sec.
    3     -77.3098732384      1.19E-01 Normal BFGS step
TIMEINFO->: J/JK contribution 14.62 sec.
    4     -77.3660530097      9.98E-03 Normal BFGS step
TIMEINFO->: J/JK contribution 15.21 sec.
    5     -77.3663748106      1.24E-03 Normal BFGS step
TIMEINFO->: J/JK contribution 15.28 sec.
    6     -77.3663797550      1.20E-04 Normal BFGS step
TIMEINFO->: J/JK contribution 15.89 sec.
    7     -77.3663799037      1.35E-05 Normal BFGS step
TIMEINFO->: J/JK contribution 15.90 sec.
    8     -77.3663799060      1.50E-06 Normal BFGS step
TIMEINFO->: J/JK contribution 15.70 sec.
    9     -77.3663799060      5.12E-08 Normal BFGS step
TIMEINFO->: J/JK contribution 15.68 sec.
   GDM::WARNING energy changes are now smaller than effective accuracy.
   GDM::        calculation will continue, but THRESH should be increased
   GDM::        or SCF_CONVERGENCE decreased.
   GDM::        effective_thresh =   3.713979887520757E-010
   10     -77.3663799060      9.49E-09 Convergence criterion met
 ---------------------------------------
 B3LYP orbitals are now ready for the XYGJ-OS calculation.
 XYGJ-OS energy = Exch (0.7731 HF  + 0.2269 Slater) + 
                  Corr (0.2754 LYP + 0.2309 VWN1RPA + 0.4364 OS-MP2)
 SCF time:  CPU 228.50 s  wall 28.74 s
 SCF   energy in the final basis set = -76.97636199
 Total energy in the final basis set = -76.97636199
 Entering Scaled Opposite Spin MP2
 NBasAux in rimp2.F =          304

 OS-MP2 job begins now...

 SOS scaling factor =  0.4
 Form (P|Q)**(-1/2)...
 
 Form (ia|P)...
 Form BiaQ = (ia|P)*(P|Q)**(-1/2)...
 Laplace quadrature loop begins
 Laplace point 1: correlation energy     =        -0.0893327552
 Laplace point 2: correlation energy     =        -0.0877278522
 Laplace point 3: correlation energy     =        -0.1161169003
 Laplace point 4: correlation energy     =        -0.1027743097
 Laplace point 5: correlation energy     =        -0.0455657474
 Laplace point 6: correlation energy     =        -0.0078038092
 Laplace point 7: correlation energy     =        -0.0001794298
 
 singles contribution not yet available for XYGJ-OS 
 Total OS-MP2 correlation energy         =        -0.4495008039

 Total XYGJ-OS energy                    =       -77.1725241436
 
 ------------------------------------------------------------------------------
                     SOSMP2        : Timing summary (seconds)
 ------------------------------------------------------------------------------
     job step          cpu (% of tot)      sys (% of tot)     wall (% of tot)
 ------------------------------------------------------------------------------
  Form inv (P|Q)    0.7937E+00 ( 9.1)   0.5000E-05 (11.4)   0.1024E+00 ( 9.1)
  Form (ia|P)       0.5517E+01 (63.4)   0.2500E-04 (56.8)   0.6946E+00 (61.9)
  Form  BiaQ        0.3075E+00 ( 3.5)   0.2000E-05 ( 4.5)   0.3865E-01 ( 3.4)
  LP orbitals       0.3233E+00 ( 3.7)   0.1000E-05 ( 2.3)   0.4496E-01 ( 4.0)
  Form  X(PQ)       0.1211E+01 (13.9)   0.8000E-05 (18.2)   0.1656E+00 (14.7)
  Increment EMP2    0.3566E+00 ( 4.1)   0.1000E-05 ( 2.3)   0.5259E-01 ( 4.7)
 ------------------------------------------------------------------------------
   Grand Totals     0.8697E+01          0.4400E-04          0.1123E+01
 ------------------------------------------------------------------------------
 
 --------------------------------------------------------------
 
                    Orbital Energies (a.u.)
 --------------------------------------------------------------
 
 Alpha MOs
 -- Occupied --
-10.187 -10.185  -0.760  -0.575  -0.505  -0.301  -0.301
 -- Virtual --
 -0.001   0.007   0.009   0.009   0.049   0.049   0.056   0.067
  0.093   0.096   0.096   0.145   0.184   0.200   0.204   0.204
  0.209   0.209   0.295   0.295   0.301   0.312   0.313   0.313
  0.336   0.348   0.348   0.367   0.367   0.436   0.494   0.494
  0.498   0.507   0.698   0.698   0.733   0.738   0.749   0.749
  0.799   0.799   0.814   0.839   0.839   0.884   0.884   0.887
  0.887   0.889   0.889   0.906   0.982   1.011   1.011   1.034
  1.034   1.056   1.127   1.133   1.133   1.230   1.230   1.357
  1.357   1.424   1.459   1.459   1.555   1.555   1.696   1.696
  1.720   1.751   1.793   1.828   1.828   1.917   2.136   2.136
  2.237   2.426   2.426   2.622   2.743   2.846   2.846   2.874
  2.874   3.002   3.002   3.059   3.059   3.133   3.133   3.146
  3.260   3.260   3.368   3.391   3.391   3.408   3.408   3.431
  3.472   3.472   3.787   3.787   3.859   3.859   3.898   3.970
  4.340   4.350   4.350   4.435   4.435   4.438   4.438   4.694
  4.718   4.718   5.199   5.490   5.490   5.549   6.210   6.393
  6.393   6.992   7.163  14.980  14.980  15.711  15.711  16.215
 16.327  17.449  17.668  40.422  40.422  40.483  40.483  40.501
 40.501  40.653  40.689  40.689  41.318  79.701  79.701  80.259
 80.259  80.650  81.438  84.651  87.025
 --------------------------------------------------------------
 
          Ground-State Mulliken Net Atomic Charges

     Atom                 Charge (a.u.)
  ----------------------------------------
      1 C                    -0.563211
      2 C                    -0.563211
      3 H                     0.563211
      4 H                     0.563211
  ----------------------------------------
  Sum of atomic charges =     0.000000

 -----------------------------------------------------------------
                    Cartesian Multipole Moments
 -----------------------------------------------------------------
    Charge (ESU x 10^10)
                 0.0000
    Dipole Moment (Debye)
         X       0.0000      Y       0.0000      Z      -0.0000
       Tot       0.0000
    Quadrupole Moments (Debye-Ang)
        XX     -13.7797     XY      -0.0000     YY     -13.7797
        XZ       0.0000     YZ      -0.0000     ZZ      -7.1708
    Octopole Moments (Debye-Ang^2)
       XXX      -0.0000    XXY       0.0000    XYY       0.0000
       YYY       0.0000    XXZ      -0.0000    XYZ      -0.0000
       YYZ      -0.0000    XZZ       0.0000    YZZ      -0.0000
       ZZZ      -0.0000
    Hexadecapole Moments (Debye-Ang^3)
      XXXX     -17.4892   XXXY       0.0000   XXYY      -5.8297
      XYYY       0.0000   YYYY     -17.4892   XXXZ       0.0000
      XXYZ      -0.0000   XYYZ       0.0000   YYYZ      -0.0000
      XXZZ     -12.9247   XYZZ       0.0000   YYZZ     -12.9247
      XZZZ      -0.0000   YZZZ       0.0000   ZZZZ     -38.8163
 -----------------------------------------------------------------
Archival summary:
1\1\n0065.mhg0\SP\ProcedureUnspecified\BasisUnspecified\22\yhljason\WedOct2103:29:122020WedOct2103:29:122020\0\\#,ProcedureUnspecified,BasisUnspecified,\\0,1\C\H,1,1.0631\C,1,1.2026,2,180\H,3,1.0631,1,180,2,0,0\\\@

 Total job time:  30.69s(wall), 242.92s(cpu) 
 Wed Oct 21 03:29:12 2020

        *************************************************************
        *                                                           *
        *  Thank you very much for using Q-Chem.  Have a nice day.  *
        *                                                           *
        *************************************************************


 
User input: 2 of 7 
 
Q-Chem Developer Version!
                  Welcome to Q-Chem
     A Quantum Leap Into The Future Of Chemistry


 Q-Chem 5.1, Q-Chem, Inc., Pleasanton, CA (2018)

 Yihan Shao,  Zhengting Gan,  E. Epifanovsky,  A. T. B. Gilbert,  M. Wormit,  
 J. Kussmann,  A. W. Lange,  A. Behn,  Jia Deng,  Xintian Feng,  D. Ghosh,  
 M. Goldey,  P. R. Horn,  L. D. Jacobson,  I. Kaliman,  T. Kus,  A. Landau,  
 Jie Liu,  E. I. Proynov,  R. M. Richard,  R. P. Steele,  E. J. Sundstrom,  
 H. L. Woodcock III,  P. M. Zimmerman,  D. Zuev,  B. Albrecht,  E. Alguire,  
 S. A. Baeppler,  D. Barton,  Z. Benda,  Y. A. Bernard,  E. J. Berquist,  
 K. B. Bravaya,  H. Burton,  D. Casanova,  Chun-Min Chang,  Yunqing Chen,  
 A. Chien,  K. D. Closser,  M. P. Coons,  S. Coriani,  S. Dasgupta,  
 A. L. Dempwolff,  M. Diedenhofen,  Hainam Do,  R. G. Edgar,  Po-Tung Fang,  
 S. Faraji,  S. Fatehi,  Qingguo Feng,  K. D. Fenk,  J. Fosso-Tande,  
 Qinghui Ge,  A. Ghysels,  G. Gidofalvi,  J. Gomes,  J. Gonthier,  A. Gunina,  
 D. Hait,  M. W. D. Hanson-Heine,  P. H. P. Harbach,  A. W. Hauser,  
 J. E. Herr,  E. G. Hohenstein,  Z. C. Holden,  Kerwin Hui,  B. C. Huynh,  
 T.-C. Jagau,  Hyunjun Ji,  B. Kaduk,  K. Khistyaev,  Jaehoon Kim,  
 P. Klunzinger,  K. Koh,  D. Kosenkov,  L. Koulias,  T. Kowalczyk,  
 C. M. Krauter,  A. Kunitsa,  Ka Un Lao,  A. Laurent,  K. V. Lawler,  
 Joonho Lee,  D. Lefrancois,  S. Lehtola,  D. S. Levine,  Yi-Pei Li,  
 You-Sheng Lin,  Fenglai Liu,  E. Livshits,  A. Luenser,  P. Manohar,  
 E. Mansoor,  S. F. Manzer,  Shan-Ping Mao,  Yuezhi Mao,  N. Mardirossian,  
 A. V. Marenich,  T. Markovich,  L. A. Martinez-Martinez,  S. A. Maurer,  
 N. J. Mayhall,  S. C. McKenzie,  J.-M. Mewes,  A. F. Morrison,  
 J. W. Mullinax,  K. Nanda,  T. S. Nguyen-Beck,  R. Olivares-Amaya,  
 J. A. Parkhill,  T. M. Perrine,  F. Plasser,  P. Pokhilko,  S. Prager,  
 A. Prociuk,  E. Ramos,  D. R. Rehn,  F. Rob,  M. Schneider,  N. Sergueev,  
 S. M. Sharada,  S. Sharma,  D. W. Small,  T. Stauch,  T. Stein,  
 Yu-Chuan Su,  A. J. W. Thom,  A. Tkatchenko,  T. Tsuchimochi,  N. M. Tubman,  
 L. Vogt,  M. L. Vidal,  O. Vydrov,  M. A. Watson,  J. Wenzel,  
 M. de Wergifosse,  T. A. Wesolowski,  A. White,  J. Witte,  A. Yamada,  
 Jun Yang,  K. Yao,  S. Yeganeh,  S. R. Yost,  Zhi-Qiang You,  A. Zech,  
 Igor Ying Zhang,  Xing Zhang,  Yan Zhao,  Ying Zhu,  B. R. Brooks,  
 G. K. L. Chan,  C. J. Cramer,  M. S. Gordon,  W. J. Hehre,  A. Klamt,  
 M. W. Schmidt,  C. D. Sherrill,  D. G. Truhlar,  A. Aspuru-Guzik,  R. Baer,  
 A. T. Bell,  N. A. Besley,  Jeng-Da Chai,  A. E. DePrince, III,  
 R. A. DiStasio Jr.,  A. Dreuw,  B. D. Dunietz,  T. R. Furlani,  
 Chao-Ping Hsu,  Yousung Jung,  Jing Kong,  D. S. Lambrecht,  WanZhen Liang,  
 C. Ochsenfeld,  V. A. Rassolov,  L. V. Slipchenko,  J. E. Subotnik,  
 T. Van Voorhis,  J. M. Herbert,  A. I. Krylov,  P. M. W. Gill,  M. Head-Gordon

 Contributors to earlier versions of Q-Chem not listed above: 
 R. D. Adamson,  B. Austin,  J. Baker,  G. J. O. Beran,  K. Brandhorst,  
 S. T. Brown,  E. F. C. Byrd,  A. K. Chakraborty,  C.-L. Cheng,  
 Siu Hung Chien,  D. M. Chipman,  D. L. Crittenden,  H. Dachsel,  
 R. J. Doerksen,  A. D. Dutoi,  L. Fusti-Molnar,  W. A. Goddard III,  
 A. Golubeva-Zadorozhnaya,  S. R. Gwaltney,  G. Hawkins,  A. Heyden,  
 S. Hirata,  G. Kedziora,  F. J. Keil,  C. Kelley,  Jihan Kim,  R. A. King,  
 R. Z. Khaliullin,  P. P. Korambath,  W. Kurlancheek,  A. M. Lee,  M. S. Lee,  
 S. V. Levchenko,  Ching Yeh Lin,  D. Liotard,  R. C. Lochan,  I. Lotan,  
 P. E. Maslen,  N. Nair,  D. P. O'Neill,  D. Neuhauser,  E. Neuscamman,  
 C. M. Oana,  R. Olson,  B. Peters,  R. Peverati,  P. A. Pieniazek,  
 Y. M. Rhee,  J. Ritchie,  M. A. Rohrdanz,  E. Rosta,  N. J. Russ,  
 H. F. Schaefer III,  N. E. Schultz,  N. Shenvi,  A. C. Simmonett,  A. Sodt,  
 D. Stuck,  K. S. Thanthiriwatte,  V. Vanovschi,  Tao Wang,  A. Warshel,  
 C. F. Williams,  Q. Wu,  X. Xu,  W. Zhang

 Please cite Q-Chem as follows:
 Y. Shao et al., Mol. Phys. 113, 184-215 (2015)
 DOI: 10.1080/00268976.2014.952696

 Q-Chem 5.1.1 for Intel X86 EM64T Linux

 Parts of Q-Chem use Armadillo 8.300.2 (Tropical Shenanigans).
 http://arma.sourceforge.net/

 Q-Chem begins on Wed Oct 21 03:29:12 2020  

Host: n0065.mhg0
0

     Scratch files written to /local/scratch/users/yhljason/C2H2_XYGJOS_aug-cc-pcVTZ.inp20201021032837//
The previous job contains 0 fragments, simply inherited here
Input Ideriv = 2
Curr. Ideriv = -1
Max.  Ideriv = 2

Checking the input file for inconsistencies... 	...done.

--------------------------------------------------------------
User input:
--------------------------------------------------------------
$molecule
read
$end

$rem

jobtype sp
exchange XYGJOS
xc_grid 000099000590
basis aug-cc-pcVTZ
aux_basis rimp2-aug-cc-pVTZ
max_scf_cycles 200
thresh 14
scf_convergence 8
mem_total 128000
cc_memory 96000
cc_backend xm
mem_static 1500
symmetry false
sym_ignore true
scf_guess read
unrestricted false
scf_algorithm gdm
n_frozen_core 0
$end

$multipole_field
XX 0.0001
$end


--------------------------------------------------------------
 ----------------------------------------------------------------
             Standard Nuclear Orientation (Angstroms)
    I     Atom           X                Y                Z
 ----------------------------------------------------------------
    1      C       0.0000000000     0.0000000000     0.6013000000
    2      C       0.0000000000     0.0000000000    -0.6013000000
    3      H       0.0000000000     0.0000000000     1.6644000000
    4      H       0.0000000000     0.0000000000    -1.6644000000
 ----------------------------------------------------------------
 Nuclear Repulsion Energy =    24.7759017844 hartrees
 There are        7 alpha and        7 beta electrons
 Requested basis set is aug-cc-pCVTZ
 There are 56 shells and 164 basis functions

 Total QAlloc Memory Limit 128000 MB
 Mega-Array Size      1467 MB
 MEM_STATIC part      1500 MB

                       Distance Matrix (Angstroms)
             C (  1)   C (  2)   H (  3)
   C (  2)  1.202600
   H (  3)  1.063100  2.265700
   H (  4)  2.265700  1.063100  3.328800
 
 Applying Cartesian multipole field
    Component          Value
    ---------          -----
     (2,0,0)        1.00000E-04
 Requested basis set is rimp2-aug-cc-pVTZ
 There are 84 shells and 304 basis functions
 A cutoff of  1.0D-14 yielded   1591 shell pairs
 There are     13743 function pairs (     18129 Cartesian)
 
 -------------------------------------------------------
 OpenMP Integral Computing Module                       
 Release: version 1.0, May 2013, Q-Chem Inc. Pittsburgh 
 -------------------------------------------------------
 Integral Job Info:
 Integral job number is                      11
 Integral operator is                         1
 short-range coefficients                     0
 long-range coefficients              100000000
 Omega coefficients                           0
 if combine SR and LR in K                    0
 Integral screening is                        0
 Integral computing path is                   2
 max size of driver memory is            800000
 size of driver memory is                776718
 size of scratch memory is              6691272
 max col of scratch BK array              10000
 max len of scratch array in speh3          662
 max len of scratch index in speh4           32
 max int batch size is                      520
 min int batch size is                       52
 fixed nKL is                                52
 max L of basis functions is                  3
 order of int derivative is                   0
 number of shells is                         56
 number of basis is                         188
 number of cartesian basis is               188
 number of contracted shell pairs          1591
 number of primitive shell pairs           4026
 maxK2 (contraction) of shell pair           64
 max number of K2 of shell pair               1
 max number of CS2 of shell pair            260
 max number of PS2 of shell pair            480
 mem total for path MDJ                  562704
 -------------------------------------------------------
 Smallest overlap matrix eigenvalue = 8.25E-06
 Guess MOs from SCF MO coefficient file
 Reading MOs from coefficient file
 Reading MOs from coefficient file
 A restricted hybrid HF-DFT SCF calculation will be
 performed using Geometric Direct Minimization
 Exchange:     0.2000 Hartree-Fock + 0.0800 Slater + 0.7200 B88
 Correlation:  0.1900 VWN1RPA + 0.8100 LYP
 Using Euler-Maclaurin-Lebedev (99,590) quadrature formula
 SCF converges when RMS gradient is below 1.0E-08
Using Q-Chem read-in guess as SCF_GUESS READ specified.

 using 8 threads for integral computing
 -------------------------------------------------------
 OpenMP Integral computing Module                
 Release: version 2.0, May 2017, Q-Chem Inc. Pleasanton 
 -------------------------------------------------------
TIMEINFO->: J/JK contribution 16.94 sec.
 -------------------------------------------------------
 OpenMP BLAS3 based DFT computing Module                
 Release: version 1.0, May 2013, Q-Chem Inc. Pittsburgh 
 -------------------------------------------------------
 ---------------------------------------
  Cycle       Energy        RMS Gradient
 ---------------------------------------
    1     -77.3674043939      5.34E-04 Normal BFGS step
TIMEINFO->: J/JK contribution 16.67 sec.
    2     -77.3674047984      1.27E-04 Normal BFGS step
TIMEINFO->: J/JK contribution 15.99 sec.
    3     -77.3674048629      5.37E-05 Normal BFGS step
TIMEINFO->: J/JK contribution 15.94 sec.
    4     -77.3674048772      4.90E-06 Normal BFGS step
TIMEINFO->: J/JK contribution 16.27 sec.
    5     -77.3674048774      8.57E-07 Normal BFGS step
TIMEINFO->: J/JK contribution 16.14 sec.
    6     -77.3674048774      5.43E-08 Normal BFGS step
TIMEINFO->: J/JK contribution 15.59 sec.
    7     -77.3674048774      1.44E-08 Normal BFGS step
TIMEINFO->: J/JK contribution 15.41 sec.
   GDM::WARNING energy changes are now smaller than effective accuracy.
   GDM::        calculation will continue, but THRESH should be increased
   GDM::        or SCF_CONVERGENCE decreased.
   GDM::        effective_thresh =   6.999999999999999E-011
    8     -77.3674048774      2.87E-08 Normal BFGS step
TIMEINFO->: J/JK contribution 15.14 sec.
    9     -77.3674048774      5.46E-09 Convergence criterion met
 ---------------------------------------
 B3LYP orbitals are now ready for the XYGJ-OS calculation.
 XYGJ-OS energy = Exch (0.7731 HF  + 0.2269 Slater) + 
                  Corr (0.2754 LYP + 0.2309 VWN1RPA + 0.4364 OS-MP2)
 SCF time:  CPU 233.64 s  wall 29.44 s
 SCF   energy in the final basis set = -76.97739792
 Total energy in the final basis set = -76.97739792
 Entering Scaled Opposite Spin MP2
 NBasAux in rimp2.F =          304

 OS-MP2 job begins now...

 SOS scaling factor =  0.4
 Form (P|Q)**(-1/2)...
 
 Form (ia|P)...
 Form BiaQ = (ia|P)*(P|Q)**(-1/2)...
 Laplace quadrature loop begins
 Laplace point 1: correlation energy     =        -0.0893292124
 Laplace point 2: correlation energy     =        -0.0877186344
 Laplace point 3: correlation energy     =        -0.1161035644
 Laplace point 4: correlation energy     =        -0.1027651373
 Laplace point 5: correlation energy     =        -0.0455610671
 Laplace point 6: correlation energy     =        -0.0078021434
 Laplace point 7: correlation energy     =        -0.0001794300
 
 singles contribution not yet available for XYGJ-OS 
 Total OS-MP2 correlation energy         =        -0.4494591891

 Total XYGJ-OS energy                    =       -77.1735419063
 
 ------------------------------------------------------------------------------
                     SOSMP2        : Timing summary (seconds)
 ------------------------------------------------------------------------------
     job step          cpu (% of tot)      sys (% of tot)     wall (% of tot)
 ------------------------------------------------------------------------------
  Form inv (P|Q)    0.6677E+00 ( 7.4)   0.4000E-05 (10.3)   0.8414E-01 ( 7.4)
  Form (ia|P)       0.5747E+01 (63.4)   0.1900E-04 (48.7)   0.7216E+00 (63.4)
  Form  BiaQ        0.2814E+00 ( 3.1)   0.3000E-05 ( 7.7)   0.3528E-01 ( 3.1)
  LP orbitals       0.3641E+00 ( 4.0)   0.3000E-05 ( 7.7)   0.4568E-01 ( 4.0)
  Form  X(PQ)       0.1381E+01 (15.2)   0.9000E-05 (23.1)   0.1731E+00 (15.2)
  Increment EMP2    0.4501E+00 ( 5.0)   0.1000E-05 ( 2.6)   0.5642E-01 ( 5.0)
 ------------------------------------------------------------------------------
   Grand Totals     0.9070E+01          0.3900E-04          0.1138E+01
 ------------------------------------------------------------------------------
 
 --------------------------------------------------------------
 
                    Orbital Energies (a.u.)
 --------------------------------------------------------------
 
 Alpha MOs
 -- Occupied --
-10.188 -10.185  -0.760  -0.575  -0.505  -0.301  -0.301
 -- Virtual --
 -0.003   0.006   0.009   0.009   0.047   0.048   0.055   0.066
  0.091   0.094   0.096   0.144   0.183   0.199   0.203   0.203
  0.207   0.208   0.294   0.295   0.300   0.312   0.313   0.313
  0.335   0.347   0.348   0.365   0.366   0.435   0.493   0.493
  0.497   0.507   0.697   0.697   0.732   0.738   0.748   0.748
  0.798   0.799   0.813   0.839   0.839   0.883   0.883   0.886
  0.886   0.889   0.889   0.905   0.981   1.011   1.011   1.034
  1.034   1.055   1.127   1.133   1.133   1.230   1.230   1.356
  1.356   1.424   1.459   1.459   1.554   1.555   1.696   1.696
  1.720   1.751   1.792   1.827   1.827   1.916   2.135   2.135
  2.237   2.426   2.426   2.621   2.743   2.846   2.846   2.874
  2.874   3.002   3.002   3.059   3.059   3.133   3.133   3.146
  3.260   3.260   3.367   3.391   3.391   3.407   3.407   3.431
  3.472   3.472   3.787   3.787   3.859   3.859   3.897   3.970
  4.340   4.349   4.349   4.434   4.435   4.437   4.438   4.694
  4.718   4.718   5.199   5.490   5.490   5.548   6.210   6.393
  6.393   6.992   7.163  14.979  14.980  15.711  15.711  16.215
 16.327  17.449  17.668  40.422  40.422  40.483  40.483  40.501
 40.501  40.653  40.689  40.689  41.317  79.701  79.701  80.259
 80.259  80.649  81.438  84.651  87.024
 --------------------------------------------------------------
 
          Ground-State Mulliken Net Atomic Charges

     Atom                 Charge (a.u.)
  ----------------------------------------
      1 C                    -0.563400
      2 C                    -0.563400
      3 H                     0.563400
      4 H                     0.563400
  ----------------------------------------
  Sum of atomic charges =     0.000000

 -----------------------------------------------------------------
                    Cartesian Multipole Moments
 -----------------------------------------------------------------
    Charge (ESU x 10^10)
                 0.0000
    Dipole Moment (Debye)
         X      -0.0000      Y       0.0000      Z      -0.0000
       Tot       0.0000
    Quadrupole Moments (Debye-Ang)
        XX     -13.7927     XY      -0.0000     YY     -13.7837
        XZ       0.0000     YZ      -0.0000     ZZ      -7.1705
    Octopole Moments (Debye-Ang^2)
       XXX      -0.0000    XXY       0.0000    XYY       0.0000
       YYY       0.0000    XXZ      -0.0000    XYZ      -0.0000
       YYZ      -0.0000    XZZ      -0.0000    YZZ      -0.0000
       ZZZ      -0.0000
    Hexadecapole Moments (Debye-Ang^3)
      XXXX     -17.5565   XXXY       0.0000   XXYY      -5.8447
      XYYY       0.0000   YYYY     -17.5116   XXXZ       0.0000
      XXYZ      -0.0000   XYYZ       0.0000   YYYZ      -0.0000
      XXZZ     -12.9412   XYZZ       0.0000   YYZZ     -12.9304
      XZZZ      -0.0000   YZZZ       0.0000   ZZZZ     -38.8175
 -----------------------------------------------------------------
Archival summary:
1\1\n0065.mhg0\SP\ProcedureUnspecified\BasisUnspecified\22\yhljason\WedOct2103:29:432020WedOct2103:29:432020\0\\#,ProcedureUnspecified,BasisUnspecified,\\0,1\C\H,1,1.0631\C,1,1.2026,2,180\H,3,1.0631,1,180,2,0,0\\\@

 Total job time:  31.55s(wall), 248.53s(cpu) 
 Wed Oct 21 03:29:43 2020

        *************************************************************
        *                                                           *
        *  Thank you very much for using Q-Chem.  Have a nice day.  *
        *                                                           *
        *************************************************************


 
User input: 3 of 7 
 
Q-Chem Developer Version!
                  Welcome to Q-Chem
     A Quantum Leap Into The Future Of Chemistry


 Q-Chem 5.1, Q-Chem, Inc., Pleasanton, CA (2018)

 Yihan Shao,  Zhengting Gan,  E. Epifanovsky,  A. T. B. Gilbert,  M. Wormit,  
 J. Kussmann,  A. W. Lange,  A. Behn,  Jia Deng,  Xintian Feng,  D. Ghosh,  
 M. Goldey,  P. R. Horn,  L. D. Jacobson,  I. Kaliman,  T. Kus,  A. Landau,  
 Jie Liu,  E. I. Proynov,  R. M. Richard,  R. P. Steele,  E. J. Sundstrom,  
 H. L. Woodcock III,  P. M. Zimmerman,  D. Zuev,  B. Albrecht,  E. Alguire,  
 S. A. Baeppler,  D. Barton,  Z. Benda,  Y. A. Bernard,  E. J. Berquist,  
 K. B. Bravaya,  H. Burton,  D. Casanova,  Chun-Min Chang,  Yunqing Chen,  
 A. Chien,  K. D. Closser,  M. P. Coons,  S. Coriani,  S. Dasgupta,  
 A. L. Dempwolff,  M. Diedenhofen,  Hainam Do,  R. G. Edgar,  Po-Tung Fang,  
 S. Faraji,  S. Fatehi,  Qingguo Feng,  K. D. Fenk,  J. Fosso-Tande,  
 Qinghui Ge,  A. Ghysels,  G. Gidofalvi,  J. Gomes,  J. Gonthier,  A. Gunina,  
 D. Hait,  M. W. D. Hanson-Heine,  P. H. P. Harbach,  A. W. Hauser,  
 J. E. Herr,  E. G. Hohenstein,  Z. C. Holden,  Kerwin Hui,  B. C. Huynh,  
 T.-C. Jagau,  Hyunjun Ji,  B. Kaduk,  K. Khistyaev,  Jaehoon Kim,  
 P. Klunzinger,  K. Koh,  D. Kosenkov,  L. Koulias,  T. Kowalczyk,  
 C. M. Krauter,  A. Kunitsa,  Ka Un Lao,  A. Laurent,  K. V. Lawler,  
 Joonho Lee,  D. Lefrancois,  S. Lehtola,  D. S. Levine,  Yi-Pei Li,  
 You-Sheng Lin,  Fenglai Liu,  E. Livshits,  A. Luenser,  P. Manohar,  
 E. Mansoor,  S. F. Manzer,  Shan-Ping Mao,  Yuezhi Mao,  N. Mardirossian,  
 A. V. Marenich,  T. Markovich,  L. A. Martinez-Martinez,  S. A. Maurer,  
 N. J. Mayhall,  S. C. McKenzie,  J.-M. Mewes,  A. F. Morrison,  
 J. W. Mullinax,  K. Nanda,  T. S. Nguyen-Beck,  R. Olivares-Amaya,  
 J. A. Parkhill,  T. M. Perrine,  F. Plasser,  P. Pokhilko,  S. Prager,  
 A. Prociuk,  E. Ramos,  D. R. Rehn,  F. Rob,  M. Schneider,  N. Sergueev,  
 S. M. Sharada,  S. Sharma,  D. W. Small,  T. Stauch,  T. Stein,  
 Yu-Chuan Su,  A. J. W. Thom,  A. Tkatchenko,  T. Tsuchimochi,  N. M. Tubman,  
 L. Vogt,  M. L. Vidal,  O. Vydrov,  M. A. Watson,  J. Wenzel,  
 M. de Wergifosse,  T. A. Wesolowski,  A. White,  J. Witte,  A. Yamada,  
 Jun Yang,  K. Yao,  S. Yeganeh,  S. R. Yost,  Zhi-Qiang You,  A. Zech,  
 Igor Ying Zhang,  Xing Zhang,  Yan Zhao,  Ying Zhu,  B. R. Brooks,  
 G. K. L. Chan,  C. J. Cramer,  M. S. Gordon,  W. J. Hehre,  A. Klamt,  
 M. W. Schmidt,  C. D. Sherrill,  D. G. Truhlar,  A. Aspuru-Guzik,  R. Baer,  
 A. T. Bell,  N. A. Besley,  Jeng-Da Chai,  A. E. DePrince, III,  
 R. A. DiStasio Jr.,  A. Dreuw,  B. D. Dunietz,  T. R. Furlani,  
 Chao-Ping Hsu,  Yousung Jung,  Jing Kong,  D. S. Lambrecht,  WanZhen Liang,  
 C. Ochsenfeld,  V. A. Rassolov,  L. V. Slipchenko,  J. E. Subotnik,  
 T. Van Voorhis,  J. M. Herbert,  A. I. Krylov,  P. M. W. Gill,  M. Head-Gordon

 Contributors to earlier versions of Q-Chem not listed above: 
 R. D. Adamson,  B. Austin,  J. Baker,  G. J. O. Beran,  K. Brandhorst,  
 S. T. Brown,  E. F. C. Byrd,  A. K. Chakraborty,  C.-L. Cheng,  
 Siu Hung Chien,  D. M. Chipman,  D. L. Crittenden,  H. Dachsel,  
 R. J. Doerksen,  A. D. Dutoi,  L. Fusti-Molnar,  W. A. Goddard III,  
 A. Golubeva-Zadorozhnaya,  S. R. Gwaltney,  G. Hawkins,  A. Heyden,  
 S. Hirata,  G. Kedziora,  F. J. Keil,  C. Kelley,  Jihan Kim,  R. A. King,  
 R. Z. Khaliullin,  P. P. Korambath,  W. Kurlancheek,  A. M. Lee,  M. S. Lee,  
 S. V. Levchenko,  Ching Yeh Lin,  D. Liotard,  R. C. Lochan,  I. Lotan,  
 P. E. Maslen,  N. Nair,  D. P. O'Neill,  D. Neuhauser,  E. Neuscamman,  
 C. M. Oana,  R. Olson,  B. Peters,  R. Peverati,  P. A. Pieniazek,  
 Y. M. Rhee,  J. Ritchie,  M. A. Rohrdanz,  E. Rosta,  N. J. Russ,  
 H. F. Schaefer III,  N. E. Schultz,  N. Shenvi,  A. C. Simmonett,  A. Sodt,  
 D. Stuck,  K. S. Thanthiriwatte,  V. Vanovschi,  Tao Wang,  A. Warshel,  
 C. F. Williams,  Q. Wu,  X. Xu,  W. Zhang

 Please cite Q-Chem as follows:
 Y. Shao et al., Mol. Phys. 113, 184-215 (2015)
 DOI: 10.1080/00268976.2014.952696

 Q-Chem 5.1.1 for Intel X86 EM64T Linux

 Parts of Q-Chem use Armadillo 8.300.2 (Tropical Shenanigans).
 http://arma.sourceforge.net/

 Q-Chem begins on Wed Oct 21 03:29:44 2020  

Host: n0065.mhg0
0

     Scratch files written to /local/scratch/users/yhljason/C2H2_XYGJOS_aug-cc-pcVTZ.inp20201021032837//
The previous job contains 0 fragments, simply inherited here
Input Ideriv = 2
Curr. Ideriv = -1
Max.  Ideriv = 2

Checking the input file for inconsistencies... 	...done.

--------------------------------------------------------------
User input:
--------------------------------------------------------------
$molecule
read
$end

$rem

jobtype sp
exchange XYGJOS
xc_grid 000099000590
basis aug-cc-pcVTZ
aux_basis rimp2-aug-cc-pVTZ
max_scf_cycles 200
thresh 14
scf_convergence 8
mem_total 128000
cc_memory 96000
cc_backend xm
mem_static 1500
symmetry false
sym_ignore true
scf_guess read
unrestricted false
scf_algorithm gdm
n_frozen_core 0
$end

$multipole_field
XX -0.0001
$end


--------------------------------------------------------------
 ----------------------------------------------------------------
             Standard Nuclear Orientation (Angstroms)
    I     Atom           X                Y                Z
 ----------------------------------------------------------------
    1      C       0.0000000000     0.0000000000     0.6013000000
    2      C       0.0000000000     0.0000000000    -0.6013000000
    3      H       0.0000000000     0.0000000000     1.6644000000
    4      H       0.0000000000     0.0000000000    -1.6644000000
 ----------------------------------------------------------------
 Nuclear Repulsion Energy =    24.7759017844 hartrees
 There are        7 alpha and        7 beta electrons
 Requested basis set is aug-cc-pCVTZ
 There are 56 shells and 164 basis functions

 Total QAlloc Memory Limit 128000 MB
 Mega-Array Size      1467 MB
 MEM_STATIC part      1500 MB

                       Distance Matrix (Angstroms)
             C (  1)   C (  2)   H (  3)
   C (  2)  1.202600
   H (  3)  1.063100  2.265700
   H (  4)  2.265700  1.063100  3.328800
 
 Applying Cartesian multipole field
    Component          Value
    ---------          -----
     (2,0,0)       -1.00000E-04
 Requested basis set is rimp2-aug-cc-pVTZ
 There are 84 shells and 304 basis functions
 A cutoff of  1.0D-14 yielded   1591 shell pairs
 There are     13743 function pairs (     18129 Cartesian)
 
 -------------------------------------------------------
 OpenMP Integral Computing Module                       
 Release: version 1.0, May 2013, Q-Chem Inc. Pittsburgh 
 -------------------------------------------------------
 Integral Job Info:
 Integral job number is                      11
 Integral operator is                         1
 short-range coefficients                     0
 long-range coefficients              100000000
 Omega coefficients                           0
 if combine SR and LR in K                    0
 Integral screening is                        0
 Integral computing path is                   2
 max size of driver memory is            800000
 size of driver memory is                776718
 size of scratch memory is              6691272
 max col of scratch BK array              10000
 max len of scratch array in speh3          662
 max len of scratch index in speh4           32
 max int batch size is                      520
 min int batch size is                       52
 fixed nKL is                                52
 max L of basis functions is                  3
 order of int derivative is                   0
 number of shells is                         56
 number of basis is                         188
 number of cartesian basis is               188
 number of contracted shell pairs          1591
 number of primitive shell pairs           4026
 maxK2 (contraction) of shell pair           64
 max number of K2 of shell pair               1
 max number of CS2 of shell pair            260
 max number of PS2 of shell pair            480
 mem total for path MDJ                  562704
 -------------------------------------------------------
 Smallest overlap matrix eigenvalue = 8.25E-06
 Guess MOs from SCF MO coefficient file
 Reading MOs from coefficient file
 Reading MOs from coefficient file
 A restricted hybrid HF-DFT SCF calculation will be
 performed using Geometric Direct Minimization
 Exchange:     0.2000 Hartree-Fock + 0.0800 Slater + 0.7200 B88
 Correlation:  0.1900 VWN1RPA + 0.8100 LYP
 Using Euler-Maclaurin-Lebedev (99,590) quadrature formula
 SCF converges when RMS gradient is below 1.0E-08
Using Q-Chem read-in guess as SCF_GUESS READ specified.

 using 8 threads for integral computing
 -------------------------------------------------------
 OpenMP Integral computing Module                
 Release: version 2.0, May 2017, Q-Chem Inc. Pleasanton 
 -------------------------------------------------------
TIMEINFO->: J/JK contribution 16.77 sec.
 -------------------------------------------------------
 OpenMP BLAS3 based DFT computing Module                
 Release: version 1.0, May 2013, Q-Chem Inc. Pittsburgh 
 -------------------------------------------------------
 ---------------------------------------
  Cycle       Energy        RMS Gradient
 ---------------------------------------
    1     -77.3653539638      1.07E-03 Normal BFGS step
TIMEINFO->: J/JK contribution 16.90 sec.
    2     -77.3653555840      2.54E-04 Normal BFGS step
TIMEINFO->: J/JK contribution 16.40 sec.
    3     -77.3653558396      1.07E-04 Normal BFGS step
TIMEINFO->: J/JK contribution 16.41 sec.
    4     -77.3653558973      9.73E-06 Normal BFGS step
TIMEINFO->: J/JK contribution 16.38 sec.
    5     -77.3653558979      1.71E-06 Normal BFGS step
TIMEINFO->: J/JK contribution 16.19 sec.
    6     -77.3653558980      1.08E-07 Normal BFGS step
TIMEINFO->: J/JK contribution 16.09 sec.
    7     -77.3653558980      4.33E-08 Normal BFGS step
TIMEINFO->: J/JK contribution 15.90 sec.
   GDM::WARNING energy changes are now smaller than effective accuracy.
   GDM::        calculation will continue, but THRESH should be increased
   GDM::        or SCF_CONVERGENCE decreased.
   GDM::        effective_thresh =   6.999999999999999E-011
    8     -77.3653558980      8.43E-08 Normal BFGS step
TIMEINFO->: J/JK contribution 15.82 sec.
    9     -77.3653558980      4.67E-09 Convergence criterion met
 ---------------------------------------
 B3LYP orbitals are now ready for the XYGJ-OS calculation.
 XYGJ-OS energy = Exch (0.7731 HF  + 0.2269 Slater) + 
                  Corr (0.2754 LYP + 0.2309 VWN1RPA + 0.4364 OS-MP2)
 SCF time:  CPU 232.37 s  wall 29.31 s
 SCF   energy in the final basis set = -76.97532696
 Total energy in the final basis set = -76.97532696
 Entering Scaled Opposite Spin MP2
 NBasAux in rimp2.F =          304

 OS-MP2 job begins now...

 SOS scaling factor =  0.4
 Form (P|Q)**(-1/2)...
 
 Form (ia|P)...
 Form BiaQ = (ia|P)*(P|Q)**(-1/2)...
 Laplace quadrature loop begins
 Laplace point 1: correlation energy     =        -0.0893362858
 Laplace point 2: correlation energy     =        -0.0877370346
 Laplace point 3: correlation energy     =        -0.1161301810
 Laplace point 4: correlation energy     =        -0.1027834534
 Laplace point 5: correlation energy     =        -0.0455704492
 Laplace point 6: correlation energy     =        -0.0078054915
 Laplace point 7: correlation energy     =        -0.0001794308
 
 singles contribution not yet available for XYGJ-OS 
 Total OS-MP2 correlation energy         =        -0.4495423265

 Total XYGJ-OS energy                    =       -77.1715072269
 
 ------------------------------------------------------------------------------
                     SOSMP2        : Timing summary (seconds)
 ------------------------------------------------------------------------------
     job step          cpu (% of tot)      sys (% of tot)     wall (% of tot)
 ------------------------------------------------------------------------------
  Form inv (P|Q)    0.6433E+00 ( 7.4)   0.3000E-05 ( 8.6)   0.8119E-01 ( 7.3)
  Form (ia|P)       0.5539E+01 (64.0)   0.2100E-04 (60.0)   0.6992E+00 (63.3)
  Form  BiaQ        0.2699E+00 ( 3.1)   0.1000E-05 ( 2.9)   0.3390E-01 ( 3.1)
  LP orbitals       0.3385E+00 ( 3.9)   0.2000E-05 ( 5.7)   0.4429E-01 ( 4.0)
  Form  X(PQ)       0.1305E+01 (15.1)   0.5000E-05 (14.3)   0.1714E+00 (15.5)
  Increment EMP2    0.3942E+00 ( 4.6)   0.2000E-05 ( 5.7)   0.5418E-01 ( 4.9)
 ------------------------------------------------------------------------------
   Grand Totals     0.8656E+01          0.3500E-04          0.1105E+01
 ------------------------------------------------------------------------------
 
 --------------------------------------------------------------
 
                    Orbital Energies (a.u.)
 --------------------------------------------------------------
 
 Alpha MOs
 -- Occupied --
-10.187 -10.184  -0.759  -0.575  -0.505  -0.301  -0.301
 -- Virtual --
  0.001   0.009   0.010   0.010   0.050   0.052   0.057   0.069
  0.096   0.097   0.099   0.146   0.185   0.202   0.205   0.205
  0.209   0.210   0.296   0.297   0.302   0.313   0.314   0.314
  0.337   0.349   0.349   0.367   0.368   0.437   0.494   0.494
  0.498   0.508   0.698   0.699   0.733   0.739   0.749   0.749
  0.799   0.800   0.815   0.839   0.839   0.884   0.884   0.887
  0.887   0.890   0.890   0.906   0.982   1.012   1.012   1.035
  1.035   1.056   1.127   1.134   1.134   1.230   1.230   1.357
  1.357   1.424   1.459   1.459   1.556   1.556   1.697   1.697
  1.721   1.751   1.793   1.828   1.828   1.917   2.136   2.136
  2.238   2.427   2.427   2.622   2.743   2.847   2.847   2.875
  2.875   3.003   3.003   3.059   3.059   3.133   3.133   3.147
  3.260   3.260   3.368   3.391   3.391   3.408   3.408   3.432
  3.472   3.472   3.787   3.787   3.859   3.859   3.898   3.971
  4.340   4.350   4.350   4.435   4.435   4.438   4.438   4.694
  4.718   4.719   5.200   5.490   5.490   5.549   6.210   6.393
  6.393   6.993   7.164  14.980  14.980  15.711  15.711  16.216
 16.327  17.449  17.668  40.423  40.423  40.483  40.483  40.501
 40.501  40.653  40.689  40.689  41.318  79.701  79.701  80.260
 80.260  80.650  81.438  84.651  87.025
 --------------------------------------------------------------
 
          Ground-State Mulliken Net Atomic Charges

     Atom                 Charge (a.u.)
  ----------------------------------------
      1 C                    -0.563040
      2 C                    -0.563040
      3 H                     0.563040
      4 H                     0.563040
  ----------------------------------------
  Sum of atomic charges =     0.000000

 -----------------------------------------------------------------
                    Cartesian Multipole Moments
 -----------------------------------------------------------------
    Charge (ESU x 10^10)
                 0.0000
    Dipole Moment (Debye)
         X       0.0000      Y       0.0000      Z      -0.0000
       Tot       0.0000
    Quadrupole Moments (Debye-Ang)
        XX     -13.7668     XY      -0.0000     YY     -13.7758
        XZ       0.0000     YZ      -0.0000     ZZ      -7.1710
    Octopole Moments (Debye-Ang^2)
       XXX       0.0000    XXY       0.0000    XYY       0.0000
       YYY       0.0000    XXZ      -0.0000    XYZ      -0.0000
       YYZ      -0.0000    XZZ       0.0000    YZZ      -0.0000
       ZZZ      -0.0000
    Hexadecapole Moments (Debye-Ang^3)
      XXXX     -17.4232   XXXY      -0.0000   XXYY      -5.8151
      XYYY      -0.0000   YYYY     -17.4672   XXXZ       0.0000
      XXYZ      -0.0000   XYYZ       0.0000   YYYZ      -0.0000
      XXZZ     -12.9086   XYZZ       0.0000   YYZZ     -12.9192
      XZZZ      -0.0000   YZZZ       0.0000   ZZZZ     -38.8151
 -----------------------------------------------------------------
Archival summary:
1\1\n0065.mhg0\SP\ProcedureUnspecified\BasisUnspecified\22\yhljason\WedOct2103:30:152020WedOct2103:30:152020\0\\#,ProcedureUnspecified,BasisUnspecified,\\0,1\C\H,1,1.0631\C,1,1.2026,2,180\H,3,1.0631,1,180,2,0,0\\\@

 Total job time:  31.31s(wall), 246.51s(cpu) 
 Wed Oct 21 03:30:15 2020

        *************************************************************
        *                                                           *
        *  Thank you very much for using Q-Chem.  Have a nice day.  *
        *                                                           *
        *************************************************************


 
User input: 4 of 7 
 
Q-Chem Developer Version!
                  Welcome to Q-Chem
     A Quantum Leap Into The Future Of Chemistry


 Q-Chem 5.1, Q-Chem, Inc., Pleasanton, CA (2018)

 Yihan Shao,  Zhengting Gan,  E. Epifanovsky,  A. T. B. Gilbert,  M. Wormit,  
 J. Kussmann,  A. W. Lange,  A. Behn,  Jia Deng,  Xintian Feng,  D. Ghosh,  
 M. Goldey,  P. R. Horn,  L. D. Jacobson,  I. Kaliman,  T. Kus,  A. Landau,  
 Jie Liu,  E. I. Proynov,  R. M. Richard,  R. P. Steele,  E. J. Sundstrom,  
 H. L. Woodcock III,  P. M. Zimmerman,  D. Zuev,  B. Albrecht,  E. Alguire,  
 S. A. Baeppler,  D. Barton,  Z. Benda,  Y. A. Bernard,  E. J. Berquist,  
 K. B. Bravaya,  H. Burton,  D. Casanova,  Chun-Min Chang,  Yunqing Chen,  
 A. Chien,  K. D. Closser,  M. P. Coons,  S. Coriani,  S. Dasgupta,  
 A. L. Dempwolff,  M. Diedenhofen,  Hainam Do,  R. G. Edgar,  Po-Tung Fang,  
 S. Faraji,  S. Fatehi,  Qingguo Feng,  K. D. Fenk,  J. Fosso-Tande,  
 Qinghui Ge,  A. Ghysels,  G. Gidofalvi,  J. Gomes,  J. Gonthier,  A. Gunina,  
 D. Hait,  M. W. D. Hanson-Heine,  P. H. P. Harbach,  A. W. Hauser,  
 J. E. Herr,  E. G. Hohenstein,  Z. C. Holden,  Kerwin Hui,  B. C. Huynh,  
 T.-C. Jagau,  Hyunjun Ji,  B. Kaduk,  K. Khistyaev,  Jaehoon Kim,  
 P. Klunzinger,  K. Koh,  D. Kosenkov,  L. Koulias,  T. Kowalczyk,  
 C. M. Krauter,  A. Kunitsa,  Ka Un Lao,  A. Laurent,  K. V. Lawler,  
 Joonho Lee,  D. Lefrancois,  S. Lehtola,  D. S. Levine,  Yi-Pei Li,  
 You-Sheng Lin,  Fenglai Liu,  E. Livshits,  A. Luenser,  P. Manohar,  
 E. Mansoor,  S. F. Manzer,  Shan-Ping Mao,  Yuezhi Mao,  N. Mardirossian,  
 A. V. Marenich,  T. Markovich,  L. A. Martinez-Martinez,  S. A. Maurer,  
 N. J. Mayhall,  S. C. McKenzie,  J.-M. Mewes,  A. F. Morrison,  
 J. W. Mullinax,  K. Nanda,  T. S. Nguyen-Beck,  R. Olivares-Amaya,  
 J. A. Parkhill,  T. M. Perrine,  F. Plasser,  P. Pokhilko,  S. Prager,  
 A. Prociuk,  E. Ramos,  D. R. Rehn,  F. Rob,  M. Schneider,  N. Sergueev,  
 S. M. Sharada,  S. Sharma,  D. W. Small,  T. Stauch,  T. Stein,  
 Yu-Chuan Su,  A. J. W. Thom,  A. Tkatchenko,  T. Tsuchimochi,  N. M. Tubman,  
 L. Vogt,  M. L. Vidal,  O. Vydrov,  M. A. Watson,  J. Wenzel,  
 M. de Wergifosse,  T. A. Wesolowski,  A. White,  J. Witte,  A. Yamada,  
 Jun Yang,  K. Yao,  S. Yeganeh,  S. R. Yost,  Zhi-Qiang You,  A. Zech,  
 Igor Ying Zhang,  Xing Zhang,  Yan Zhao,  Ying Zhu,  B. R. Brooks,  
 G. K. L. Chan,  C. J. Cramer,  M. S. Gordon,  W. J. Hehre,  A. Klamt,  
 M. W. Schmidt,  C. D. Sherrill,  D. G. Truhlar,  A. Aspuru-Guzik,  R. Baer,  
 A. T. Bell,  N. A. Besley,  Jeng-Da Chai,  A. E. DePrince, III,  
 R. A. DiStasio Jr.,  A. Dreuw,  B. D. Dunietz,  T. R. Furlani,  
 Chao-Ping Hsu,  Yousung Jung,  Jing Kong,  D. S. Lambrecht,  WanZhen Liang,  
 C. Ochsenfeld,  V. A. Rassolov,  L. V. Slipchenko,  J. E. Subotnik,  
 T. Van Voorhis,  J. M. Herbert,  A. I. Krylov,  P. M. W. Gill,  M. Head-Gordon

 Contributors to earlier versions of Q-Chem not listed above: 
 R. D. Adamson,  B. Austin,  J. Baker,  G. J. O. Beran,  K. Brandhorst,  
 S. T. Brown,  E. F. C. Byrd,  A. K. Chakraborty,  C.-L. Cheng,  
 Siu Hung Chien,  D. M. Chipman,  D. L. Crittenden,  H. Dachsel,  
 R. J. Doerksen,  A. D. Dutoi,  L. Fusti-Molnar,  W. A. Goddard III,  
 A. Golubeva-Zadorozhnaya,  S. R. Gwaltney,  G. Hawkins,  A. Heyden,  
 S. Hirata,  G. Kedziora,  F. J. Keil,  C. Kelley,  Jihan Kim,  R. A. King,  
 R. Z. Khaliullin,  P. P. Korambath,  W. Kurlancheek,  A. M. Lee,  M. S. Lee,  
 S. V. Levchenko,  Ching Yeh Lin,  D. Liotard,  R. C. Lochan,  I. Lotan,  
 P. E. Maslen,  N. Nair,  D. P. O'Neill,  D. Neuhauser,  E. Neuscamman,  
 C. M. Oana,  R. Olson,  B. Peters,  R. Peverati,  P. A. Pieniazek,  
 Y. M. Rhee,  J. Ritchie,  M. A. Rohrdanz,  E. Rosta,  N. J. Russ,  
 H. F. Schaefer III,  N. E. Schultz,  N. Shenvi,  A. C. Simmonett,  A. Sodt,  
 D. Stuck,  K. S. Thanthiriwatte,  V. Vanovschi,  Tao Wang,  A. Warshel,  
 C. F. Williams,  Q. Wu,  X. Xu,  W. Zhang

 Please cite Q-Chem as follows:
 Y. Shao et al., Mol. Phys. 113, 184-215 (2015)
 DOI: 10.1080/00268976.2014.952696

 Q-Chem 5.1.1 for Intel X86 EM64T Linux

 Parts of Q-Chem use Armadillo 8.300.2 (Tropical Shenanigans).
 http://arma.sourceforge.net/

 Q-Chem begins on Wed Oct 21 03:30:15 2020  

Host: n0065.mhg0
0

     Scratch files written to /local/scratch/users/yhljason/C2H2_XYGJOS_aug-cc-pcVTZ.inp20201021032837//
The previous job contains 0 fragments, simply inherited here
Input Ideriv = 2
Curr. Ideriv = -1
Max.  Ideriv = 2

Checking the input file for inconsistencies... 	...done.

--------------------------------------------------------------
User input:
--------------------------------------------------------------
$molecule
read
$end

$rem

jobtype sp
exchange XYGJOS
xc_grid 000099000590
basis aug-cc-pcVTZ
aux_basis rimp2-aug-cc-pVTZ
max_scf_cycles 200
thresh 14
scf_convergence 8
mem_total 128000
cc_memory 96000
cc_backend xm
mem_static 1500
symmetry false
sym_ignore true
scf_guess read
unrestricted false
scf_algorithm gdm
n_frozen_core 0
$end

$multipole_field
YY 0.0001
$end


--------------------------------------------------------------
 ----------------------------------------------------------------
             Standard Nuclear Orientation (Angstroms)
    I     Atom           X                Y                Z
 ----------------------------------------------------------------
    1      C       0.0000000000     0.0000000000     0.6013000000
    2      C       0.0000000000     0.0000000000    -0.6013000000
    3      H       0.0000000000     0.0000000000     1.6644000000
    4      H       0.0000000000     0.0000000000    -1.6644000000
 ----------------------------------------------------------------
 Nuclear Repulsion Energy =    24.7759017844 hartrees
 There are        7 alpha and        7 beta electrons
 Requested basis set is aug-cc-pCVTZ
 There are 56 shells and 164 basis functions

 Total QAlloc Memory Limit 128000 MB
 Mega-Array Size      1467 MB
 MEM_STATIC part      1500 MB

                       Distance Matrix (Angstroms)
             C (  1)   C (  2)   H (  3)
   C (  2)  1.202600
   H (  3)  1.063100  2.265700
   H (  4)  2.265700  1.063100  3.328800
 
 Applying Cartesian multipole field
    Component          Value
    ---------          -----
     (0,2,0)        1.00000E-04
 Requested basis set is rimp2-aug-cc-pVTZ
 There are 84 shells and 304 basis functions
 A cutoff of  1.0D-14 yielded   1591 shell pairs
 There are     13743 function pairs (     18129 Cartesian)
 
 -------------------------------------------------------
 OpenMP Integral Computing Module                       
 Release: version 1.0, May 2013, Q-Chem Inc. Pittsburgh 
 -------------------------------------------------------
 Integral Job Info:
 Integral job number is                      11
 Integral operator is                         1
 short-range coefficients                     0
 long-range coefficients              100000000
 Omega coefficients                           0
 if combine SR and LR in K                    0
 Integral screening is                        0
 Integral computing path is                   2
 max size of driver memory is            800000
 size of driver memory is                776718
 size of scratch memory is              6691272
 max col of scratch BK array              10000
 max len of scratch array in speh3          662
 max len of scratch index in speh4           32
 max int batch size is                      520
 min int batch size is                       52
 fixed nKL is                                52
 max L of basis functions is                  3
 order of int derivative is                   0
 number of shells is                         56
 number of basis is                         188
 number of cartesian basis is               188
 number of contracted shell pairs          1591
 number of primitive shell pairs           4026
 maxK2 (contraction) of shell pair           64
 max number of K2 of shell pair               1
 max number of CS2 of shell pair            260
 max number of PS2 of shell pair            480
 mem total for path MDJ                  562704
 -------------------------------------------------------
 Smallest overlap matrix eigenvalue = 8.25E-06
 Guess MOs from SCF MO coefficient file
 Reading MOs from coefficient file
 Reading MOs from coefficient file
 A restricted hybrid HF-DFT SCF calculation will be
 performed using Geometric Direct Minimization
 Exchange:     0.2000 Hartree-Fock + 0.0800 Slater + 0.7200 B88
 Correlation:  0.1900 VWN1RPA + 0.8100 LYP
 Using Euler-Maclaurin-Lebedev (99,590) quadrature formula
 SCF converges when RMS gradient is below 1.0E-08
Using Q-Chem read-in guess as SCF_GUESS READ specified.

 using 8 threads for integral computing
 -------------------------------------------------------
 OpenMP Integral computing Module                
 Release: version 2.0, May 2017, Q-Chem Inc. Pleasanton 
 -------------------------------------------------------
TIMEINFO->: J/JK contribution 16.79 sec.
 -------------------------------------------------------
 OpenMP BLAS3 based DFT computing Module                
 Release: version 1.0, May 2013, Q-Chem Inc. Pittsburgh 
 -------------------------------------------------------
 ---------------------------------------
  Cycle       Energy        RMS Gradient
 ---------------------------------------
    1     -77.3674036230      7.10E-04 Normal BFGS step
TIMEINFO->: J/JK contribution 16.74 sec.
    2     -77.3674045721      2.29E-04 Normal BFGS step
TIMEINFO->: J/JK contribution 16.36 sec.
    3     -77.3674048500      7.43E-05 Normal BFGS step
TIMEINFO->: J/JK contribution 16.26 sec.
    4     -77.3674048765      1.13E-05 Normal BFGS step
TIMEINFO->: J/JK contribution 16.12 sec.
    5     -77.3674048774      1.21E-06 Normal BFGS step
TIMEINFO->: J/JK contribution 15.97 sec.
    6     -77.3674048774      1.20E-07 Normal BFGS step
TIMEINFO->: J/JK contribution 15.88 sec.
    7     -77.3674048774      5.27E-08 Normal BFGS step
TIMEINFO->: J/JK contribution 15.44 sec.
    8     -77.3674048774      1.09E-07 Normal BFGS step
TIMEINFO->: J/JK contribution 15.37 sec.
   GDM::WARNING energy changes are now smaller than effective accuracy.
   GDM::        calculation will continue, but THRESH should be increased
   GDM::        or SCF_CONVERGENCE decreased.
   GDM::        effective_thresh =   6.999999999999999E-011
    9     -77.3674048774      3.03E-09 Convergence criterion met
 ---------------------------------------
 B3LYP orbitals are now ready for the XYGJ-OS calculation.
 XYGJ-OS energy = Exch (0.7731 HF  + 0.2269 Slater) + 
                  Corr (0.2754 LYP + 0.2309 VWN1RPA + 0.4364 OS-MP2)
 SCF time:  CPU 226.76 s  wall 28.57 s
 SCF   energy in the final basis set = -76.97739792
 Total energy in the final basis set = -76.97739792
 Entering Scaled Opposite Spin MP2
 NBasAux in rimp2.F =          304

 OS-MP2 job begins now...

 SOS scaling factor =  0.4
 Form (P|Q)**(-1/2)...
 
 Form (ia|P)...
 Form BiaQ = (ia|P)*(P|Q)**(-1/2)...
 Laplace quadrature loop begins
 Laplace point 1: correlation energy     =        -0.0893292124
 Laplace point 2: correlation energy     =        -0.0877186344
 Laplace point 3: correlation energy     =        -0.1161035644
 Laplace point 4: correlation energy     =        -0.1027651374
 Laplace point 5: correlation energy     =        -0.0455610671
 Laplace point 6: correlation energy     =        -0.0078021434
 Laplace point 7: correlation energy     =        -0.0001794300
 
 singles contribution not yet available for XYGJ-OS 
 Total OS-MP2 correlation energy         =        -0.4494591892

 Total XYGJ-OS energy                    =       -77.1735419068
 
 ------------------------------------------------------------------------------
                     SOSMP2        : Timing summary (seconds)
 ------------------------------------------------------------------------------
     job step          cpu (% of tot)      sys (% of tot)     wall (% of tot)
 ------------------------------------------------------------------------------
  Form inv (P|Q)    0.6227E+00 ( 7.4)   0.3000E-05 ( 8.3)   0.7846E-01 ( 7.3)
  Form (ia|P)       0.5346E+01 (63.5)   0.1900E-04 (52.8)   0.6727E+00 (62.6)
  Form  BiaQ        0.2721E+00 ( 3.2)   0.1000E-05 ( 2.8)   0.3420E-01 ( 3.2)
  LP orbitals       0.3398E+00 ( 4.0)   0.5000E-05 (13.9)   0.4543E-01 ( 4.2)
  Form  X(PQ)       0.1272E+01 (15.1)   0.6000E-05 (16.7)   0.1680E+00 (15.6)
  Increment EMP2    0.3987E+00 ( 4.7)   0.1000E-05 ( 2.8)   0.5509E-01 ( 5.1)
 ------------------------------------------------------------------------------
   Grand Totals     0.8419E+01          0.3600E-04          0.1075E+01
 ------------------------------------------------------------------------------
 
 --------------------------------------------------------------
 
                    Orbital Energies (a.u.)
 --------------------------------------------------------------
 
 Alpha MOs
 -- Occupied --
-10.188 -10.185  -0.760  -0.575  -0.505  -0.301  -0.301
 -- Virtual --
 -0.003   0.006   0.009   0.009   0.047   0.048   0.055   0.066
  0.091   0.094   0.096   0.144   0.183   0.199   0.203   0.203
  0.207   0.208   0.294   0.295   0.300   0.312   0.313   0.313
  0.335   0.347   0.348   0.365   0.366   0.435   0.493   0.493
  0.497   0.507   0.697   0.697   0.732   0.738   0.748   0.748
  0.798   0.799   0.813   0.839   0.839   0.883   0.883   0.886
  0.886   0.889   0.889   0.905   0.981   1.011   1.011   1.034
  1.034   1.055   1.127   1.133   1.133   1.230   1.230   1.356
  1.356   1.424   1.459   1.459   1.554   1.555   1.696   1.696
  1.720   1.751   1.792   1.827   1.827   1.916   2.135   2.135
  2.237   2.426   2.426   2.621   2.743   2.846   2.846   2.874
  2.874   3.002   3.002   3.059   3.059   3.133   3.133   3.146
  3.260   3.260   3.367   3.391   3.391   3.407   3.407   3.431
  3.472   3.472   3.787   3.787   3.859   3.859   3.897   3.970
  4.340   4.349   4.349   4.434   4.435   4.437   4.438   4.694
  4.718   4.718   5.199   5.490   5.490   5.548   6.210   6.393
  6.393   6.992   7.163  14.979  14.980  15.711  15.711  16.215
 16.327  17.449  17.668  40.422  40.422  40.483  40.483  40.501
 40.501  40.653  40.689  40.689  41.317  79.701  79.701  80.259
 80.259  80.649  81.438  84.651  87.024
 --------------------------------------------------------------
 
          Ground-State Mulliken Net Atomic Charges

     Atom                 Charge (a.u.)
  ----------------------------------------
      1 C                    -0.563400
      2 C                    -0.563400
      3 H                     0.563400
      4 H                     0.563400
  ----------------------------------------
  Sum of atomic charges =     0.000000

 -----------------------------------------------------------------
                    Cartesian Multipole Moments
 -----------------------------------------------------------------
    Charge (ESU x 10^10)
                 0.0000
    Dipole Moment (Debye)
         X       0.0000      Y       0.0000      Z      -0.0000
       Tot       0.0000
    Quadrupole Moments (Debye-Ang)
        XX     -13.7837     XY       0.0000     YY     -13.7927
        XZ       0.0000     YZ      -0.0000     ZZ      -7.1705
    Octopole Moments (Debye-Ang^2)
       XXX       0.0000    XXY       0.0000    XYY       0.0000
       YYY       0.0000    XXZ      -0.0000    XYZ      -0.0000
       YYZ      -0.0000    XZZ       0.0000    YZZ      -0.0000
       ZZZ      -0.0000
    Hexadecapole Moments (Debye-Ang^3)
      XXXX     -17.5116   XXXY       0.0000   XXYY      -5.8447
      XYYY       0.0000   YYYY     -17.5565   XXXZ       0.0000
      XXYZ      -0.0000   XYYZ       0.0000   YYYZ      -0.0000
      XXZZ     -12.9304   XYZZ       0.0000   YYZZ     -12.9412
      XZZZ      -0.0000   YZZZ       0.0000   ZZZZ     -38.8175
 -----------------------------------------------------------------
Archival summary:
1\1\n0065.mhg0\SP\ProcedureUnspecified\BasisUnspecified\22\yhljason\WedOct2103:30:462020WedOct2103:30:462020\0\\#,ProcedureUnspecified,BasisUnspecified,\\0,1\C\H,1,1.0631\C,1,1.2026,2,180\H,3,1.0631,1,180,2,0,0\\\@

 Total job time:  30.49s(wall), 240.95s(cpu) 
 Wed Oct 21 03:30:46 2020

        *************************************************************
        *                                                           *
        *  Thank you very much for using Q-Chem.  Have a nice day.  *
        *                                                           *
        *************************************************************


 
User input: 5 of 7 
 
Q-Chem Developer Version!
                  Welcome to Q-Chem
     A Quantum Leap Into The Future Of Chemistry


 Q-Chem 5.1, Q-Chem, Inc., Pleasanton, CA (2018)

 Yihan Shao,  Zhengting Gan,  E. Epifanovsky,  A. T. B. Gilbert,  M. Wormit,  
 J. Kussmann,  A. W. Lange,  A. Behn,  Jia Deng,  Xintian Feng,  D. Ghosh,  
 M. Goldey,  P. R. Horn,  L. D. Jacobson,  I. Kaliman,  T. Kus,  A. Landau,  
 Jie Liu,  E. I. Proynov,  R. M. Richard,  R. P. Steele,  E. J. Sundstrom,  
 H. L. Woodcock III,  P. M. Zimmerman,  D. Zuev,  B. Albrecht,  E. Alguire,  
 S. A. Baeppler,  D. Barton,  Z. Benda,  Y. A. Bernard,  E. J. Berquist,  
 K. B. Bravaya,  H. Burton,  D. Casanova,  Chun-Min Chang,  Yunqing Chen,  
 A. Chien,  K. D. Closser,  M. P. Coons,  S. Coriani,  S. Dasgupta,  
 A. L. Dempwolff,  M. Diedenhofen,  Hainam Do,  R. G. Edgar,  Po-Tung Fang,  
 S. Faraji,  S. Fatehi,  Qingguo Feng,  K. D. Fenk,  J. Fosso-Tande,  
 Qinghui Ge,  A. Ghysels,  G. Gidofalvi,  J. Gomes,  J. Gonthier,  A. Gunina,  
 D. Hait,  M. W. D. Hanson-Heine,  P. H. P. Harbach,  A. W. Hauser,  
 J. E. Herr,  E. G. Hohenstein,  Z. C. Holden,  Kerwin Hui,  B. C. Huynh,  
 T.-C. Jagau,  Hyunjun Ji,  B. Kaduk,  K. Khistyaev,  Jaehoon Kim,  
 P. Klunzinger,  K. Koh,  D. Kosenkov,  L. Koulias,  T. Kowalczyk,  
 C. M. Krauter,  A. Kunitsa,  Ka Un Lao,  A. Laurent,  K. V. Lawler,  
 Joonho Lee,  D. Lefrancois,  S. Lehtola,  D. S. Levine,  Yi-Pei Li,  
 You-Sheng Lin,  Fenglai Liu,  E. Livshits,  A. Luenser,  P. Manohar,  
 E. Mansoor,  S. F. Manzer,  Shan-Ping Mao,  Yuezhi Mao,  N. Mardirossian,  
 A. V. Marenich,  T. Markovich,  L. A. Martinez-Martinez,  S. A. Maurer,  
 N. J. Mayhall,  S. C. McKenzie,  J.-M. Mewes,  A. F. Morrison,  
 J. W. Mullinax,  K. Nanda,  T. S. Nguyen-Beck,  R. Olivares-Amaya,  
 J. A. Parkhill,  T. M. Perrine,  F. Plasser,  P. Pokhilko,  S. Prager,  
 A. Prociuk,  E. Ramos,  D. R. Rehn,  F. Rob,  M. Schneider,  N. Sergueev,  
 S. M. Sharada,  S. Sharma,  D. W. Small,  T. Stauch,  T. Stein,  
 Yu-Chuan Su,  A. J. W. Thom,  A. Tkatchenko,  T. Tsuchimochi,  N. M. Tubman,  
 L. Vogt,  M. L. Vidal,  O. Vydrov,  M. A. Watson,  J. Wenzel,  
 M. de Wergifosse,  T. A. Wesolowski,  A. White,  J. Witte,  A. Yamada,  
 Jun Yang,  K. Yao,  S. Yeganeh,  S. R. Yost,  Zhi-Qiang You,  A. Zech,  
 Igor Ying Zhang,  Xing Zhang,  Yan Zhao,  Ying Zhu,  B. R. Brooks,  
 G. K. L. Chan,  C. J. Cramer,  M. S. Gordon,  W. J. Hehre,  A. Klamt,  
 M. W. Schmidt,  C. D. Sherrill,  D. G. Truhlar,  A. Aspuru-Guzik,  R. Baer,  
 A. T. Bell,  N. A. Besley,  Jeng-Da Chai,  A. E. DePrince, III,  
 R. A. DiStasio Jr.,  A. Dreuw,  B. D. Dunietz,  T. R. Furlani,  
 Chao-Ping Hsu,  Yousung Jung,  Jing Kong,  D. S. Lambrecht,  WanZhen Liang,  
 C. Ochsenfeld,  V. A. Rassolov,  L. V. Slipchenko,  J. E. Subotnik,  
 T. Van Voorhis,  J. M. Herbert,  A. I. Krylov,  P. M. W. Gill,  M. Head-Gordon

 Contributors to earlier versions of Q-Chem not listed above: 
 R. D. Adamson,  B. Austin,  J. Baker,  G. J. O. Beran,  K. Brandhorst,  
 S. T. Brown,  E. F. C. Byrd,  A. K. Chakraborty,  C.-L. Cheng,  
 Siu Hung Chien,  D. M. Chipman,  D. L. Crittenden,  H. Dachsel,  
 R. J. Doerksen,  A. D. Dutoi,  L. Fusti-Molnar,  W. A. Goddard III,  
 A. Golubeva-Zadorozhnaya,  S. R. Gwaltney,  G. Hawkins,  A. Heyden,  
 S. Hirata,  G. Kedziora,  F. J. Keil,  C. Kelley,  Jihan Kim,  R. A. King,  
 R. Z. Khaliullin,  P. P. Korambath,  W. Kurlancheek,  A. M. Lee,  M. S. Lee,  
 S. V. Levchenko,  Ching Yeh Lin,  D. Liotard,  R. C. Lochan,  I. Lotan,  
 P. E. Maslen,  N. Nair,  D. P. O'Neill,  D. Neuhauser,  E. Neuscamman,  
 C. M. Oana,  R. Olson,  B. Peters,  R. Peverati,  P. A. Pieniazek,  
 Y. M. Rhee,  J. Ritchie,  M. A. Rohrdanz,  E. Rosta,  N. J. Russ,  
 H. F. Schaefer III,  N. E. Schultz,  N. Shenvi,  A. C. Simmonett,  A. Sodt,  
 D. Stuck,  K. S. Thanthiriwatte,  V. Vanovschi,  Tao Wang,  A. Warshel,  
 C. F. Williams,  Q. Wu,  X. Xu,  W. Zhang

 Please cite Q-Chem as follows:
 Y. Shao et al., Mol. Phys. 113, 184-215 (2015)
 DOI: 10.1080/00268976.2014.952696

 Q-Chem 5.1.1 for Intel X86 EM64T Linux

 Parts of Q-Chem use Armadillo 8.300.2 (Tropical Shenanigans).
 http://arma.sourceforge.net/

 Q-Chem begins on Wed Oct 21 03:30:46 2020  

Host: n0065.mhg0
0

     Scratch files written to /local/scratch/users/yhljason/C2H2_XYGJOS_aug-cc-pcVTZ.inp20201021032837//
The previous job contains 0 fragments, simply inherited here
Input Ideriv = 2
Curr. Ideriv = -1
Max.  Ideriv = 2

Checking the input file for inconsistencies... 	...done.

--------------------------------------------------------------
User input:
--------------------------------------------------------------
$molecule
read
$end

$rem

jobtype sp
exchange XYGJOS
xc_grid 000099000590
basis aug-cc-pcVTZ
aux_basis rimp2-aug-cc-pVTZ
max_scf_cycles 200
thresh 14
scf_convergence 8
mem_total 128000
cc_memory 96000
cc_backend xm
mem_static 1500
symmetry false
sym_ignore true
scf_guess read
unrestricted false
scf_algorithm gdm
n_frozen_core 0
$end

$multipole_field
YY -0.0001
$end


--------------------------------------------------------------
 ----------------------------------------------------------------
             Standard Nuclear Orientation (Angstroms)
    I     Atom           X                Y                Z
 ----------------------------------------------------------------
    1      C       0.0000000000     0.0000000000     0.6013000000
    2      C       0.0000000000     0.0000000000    -0.6013000000
    3      H       0.0000000000     0.0000000000     1.6644000000
    4      H       0.0000000000     0.0000000000    -1.6644000000
 ----------------------------------------------------------------
 Nuclear Repulsion Energy =    24.7759017844 hartrees
 There are        7 alpha and        7 beta electrons
 Requested basis set is aug-cc-pCVTZ
 There are 56 shells and 164 basis functions

 Total QAlloc Memory Limit 128000 MB
 Mega-Array Size      1467 MB
 MEM_STATIC part      1500 MB

                       Distance Matrix (Angstroms)
             C (  1)   C (  2)   H (  3)
   C (  2)  1.202600
   H (  3)  1.063100  2.265700
   H (  4)  2.265700  1.063100  3.328800
 
 Applying Cartesian multipole field
    Component          Value
    ---------          -----
     (0,2,0)       -1.00000E-04
 Requested basis set is rimp2-aug-cc-pVTZ
 There are 84 shells and 304 basis functions
 A cutoff of  1.0D-14 yielded   1591 shell pairs
 There are     13743 function pairs (     18129 Cartesian)
 
 -------------------------------------------------------
 OpenMP Integral Computing Module                       
 Release: version 1.0, May 2013, Q-Chem Inc. Pittsburgh 
 -------------------------------------------------------
 Integral Job Info:
 Integral job number is                      11
 Integral operator is                         1
 short-range coefficients                     0
 long-range coefficients              100000000
 Omega coefficients                           0
 if combine SR and LR in K                    0
 Integral screening is                        0
 Integral computing path is                   2
 max size of driver memory is            800000
 size of driver memory is                776718
 size of scratch memory is              6691272
 max col of scratch BK array              10000
 max len of scratch array in speh3          662
 max len of scratch index in speh4           32
 max int batch size is                      520
 min int batch size is                       52
 fixed nKL is                                52
 max L of basis functions is                  3
 order of int derivative is                   0
 number of shells is                         56
 number of basis is                         188
 number of cartesian basis is               188
 number of contracted shell pairs          1591
 number of primitive shell pairs           4026
 maxK2 (contraction) of shell pair           64
 max number of K2 of shell pair               1
 max number of CS2 of shell pair            260
 max number of PS2 of shell pair            480
 mem total for path MDJ                  562704
 -------------------------------------------------------
 Smallest overlap matrix eigenvalue = 8.25E-06
 Guess MOs from SCF MO coefficient file
 Reading MOs from coefficient file
 Reading MOs from coefficient file
 A restricted hybrid HF-DFT SCF calculation will be
 performed using Geometric Direct Minimization
 Exchange:     0.2000 Hartree-Fock + 0.0800 Slater + 0.7200 B88
 Correlation:  0.1900 VWN1RPA + 0.8100 LYP
 Using Euler-Maclaurin-Lebedev (99,590) quadrature formula
 SCF converges when RMS gradient is below 1.0E-08
Using Q-Chem read-in guess as SCF_GUESS READ specified.

 using 8 threads for integral computing
 -------------------------------------------------------
 OpenMP Integral computing Module                
 Release: version 2.0, May 2017, Q-Chem Inc. Pleasanton 
 -------------------------------------------------------
TIMEINFO->: J/JK contribution 16.49 sec.
 -------------------------------------------------------
 OpenMP BLAS3 based DFT computing Module                
 Release: version 1.0, May 2013, Q-Chem Inc. Pittsburgh 
 -------------------------------------------------------
 ---------------------------------------
  Cycle       Energy        RMS Gradient
 ---------------------------------------
    1     -77.3653539638      1.07E-03 Normal BFGS step
TIMEINFO->: J/JK contribution 16.66 sec.
    2     -77.3653555840      2.54E-04 Normal BFGS step
TIMEINFO->: J/JK contribution 16.43 sec.
    3     -77.3653558396      1.07E-04 Normal BFGS step
TIMEINFO->: J/JK contribution 16.59 sec.
    4     -77.3653558973      9.73E-06 Normal BFGS step
TIMEINFO->: J/JK contribution 16.03 sec.
    5     -77.3653558979      1.71E-06 Normal BFGS step
TIMEINFO->: J/JK contribution 15.96 sec.
    6     -77.3653558980      1.08E-07 Normal BFGS step
TIMEINFO->: J/JK contribution 15.71 sec.
    7     -77.3653558980      1.75E-08 Normal BFGS step
TIMEINFO->: J/JK contribution 15.50 sec.
   GDM::WARNING energy changes are now smaller than effective accuracy.
   GDM::        calculation will continue, but THRESH should be increased
   GDM::        or SCF_CONVERGENCE decreased.
   GDM::        effective_thresh =   6.999999999999999E-011
    8     -77.3653558980      3.55E-08 Normal BFGS step
TIMEINFO->: J/JK contribution 15.33 sec.
    9     -77.3653558980      2.18E-08 Normal BFGS step
TIMEINFO->: J/JK contribution 15.41 sec.
   GDM::WARNING energy changes are now smaller than effective accuracy.
   GDM::        calculation will continue, but THRESH should be increased
   GDM::        or SCF_CONVERGENCE decreased.
   GDM::        effective_thresh =   6.999999999999999E-011
   10     -77.3653558980      1.03E-09 Convergence criterion met
 ---------------------------------------
 B3LYP orbitals are now ready for the XYGJ-OS calculation.
 XYGJ-OS energy = Exch (0.7731 HF  + 0.2269 Slater) + 
                  Corr (0.2754 LYP + 0.2309 VWN1RPA + 0.4364 OS-MP2)
 SCF time:  CPU 248.54 s  wall 31.33 s
 SCF   energy in the final basis set = -76.97532696
 Total energy in the final basis set = -76.97532696
 Entering Scaled Opposite Spin MP2
 NBasAux in rimp2.F =          304

 OS-MP2 job begins now...

 SOS scaling factor =  0.4
 Form (P|Q)**(-1/2)...
 
 Form (ia|P)...
 Form BiaQ = (ia|P)*(P|Q)**(-1/2)...
 Laplace quadrature loop begins
 Laplace point 1: correlation energy     =        -0.0893362859
 Laplace point 2: correlation energy     =        -0.0877370347
 Laplace point 3: correlation energy     =        -0.1161301810
 Laplace point 4: correlation energy     =        -0.1027834534
 Laplace point 5: correlation energy     =        -0.0455704492
 Laplace point 6: correlation energy     =        -0.0078054915
 Laplace point 7: correlation energy     =        -0.0001794308
 
 singles contribution not yet available for XYGJ-OS 
 Total OS-MP2 correlation energy         =        -0.4495423264

 Total XYGJ-OS energy                    =       -77.1715072286
 
 ------------------------------------------------------------------------------
                     SOSMP2        : Timing summary (seconds)
 ------------------------------------------------------------------------------
     job step          cpu (% of tot)      sys (% of tot)     wall (% of tot)
 ------------------------------------------------------------------------------
  Form inv (P|Q)    0.6315E+00 ( 7.4)   0.4000E-05 (12.5)   0.7956E-01 ( 7.4)
  Form (ia|P)       0.5313E+01 (62.2)   0.2100E-04 (65.6)   0.6680E+00 (62.2)
  Form  BiaQ        0.2618E+00 ( 3.1)   0.2000E-05 ( 6.2)   0.3290E-01 ( 3.1)
  LP orbitals       0.3439E+00 ( 4.0)   0.2000E-05 ( 6.2)   0.4335E-01 ( 4.0)
  Form  X(PQ)       0.1392E+01 (16.3)   0.2000E-05 ( 6.2)   0.1747E+00 (16.3)
  Increment EMP2    0.4330E+00 ( 5.1)   0.0000E+00 ( 0.0)   0.5537E-01 ( 5.2)
 ------------------------------------------------------------------------------
   Grand Totals     0.8537E+01          0.3200E-04          0.1074E+01
 ------------------------------------------------------------------------------
 
 --------------------------------------------------------------
 
                    Orbital Energies (a.u.)
 --------------------------------------------------------------
 
 Alpha MOs
 -- Occupied --
[...]
  0.798   0.798   0.812   0.838   0.838   0.883   0.883   0.886
  0.886   0.888   0.888   0.903   0.980   1.010   1.010   1.033
  1.033   1.054   1.125   1.133   1.133   1.229   1.229   1.356
  1.356   1.423   1.458   1.458   1.554   1.554   1.695   1.695
  1.719   1.750   1.791   1.827   1.827   1.916   2.134   2.134
  2.236   2.426   2.426   2.621   2.742   2.846   2.846   2.874
  2.874   3.002   3.002   3.059   3.059   3.133   3.133   3.146
  3.260   3.260   3.367   3.391   3.391   3.407   3.407   3.430
  3.471   3.471   3.786   3.786   3.858   3.858   3.897   3.969
  4.339   4.349   4.349   4.434   4.434   4.437   4.437   4.693
  4.717   4.717   5.198   5.489   5.489   5.548   6.209   6.392
  6.392   6.991   7.163  14.979  14.979  15.710  15.710  16.215
 16.326  17.448  17.667  40.422  40.422  40.482  40.482  40.500
 40.500  40.652  40.689  40.689  41.317  79.700  79.700  80.259
 80.259  80.649  81.437  84.650  87.024
 --------------------------------------------------------------
 
          Ground-State Mulliken Net Atomic Charges

     Atom                 Charge (a.u.)
  ----------------------------------------
      1 C                    -0.562996
      2 C                    -0.562996
      3 H                     0.562996
      4 H                     0.562996
  ----------------------------------------
  Sum of atomic charges =     0.000000

 -----------------------------------------------------------------
                    Cartesian Multipole Moments
 -----------------------------------------------------------------
    Charge (ESU x 10^10)
                 0.0000
    Dipole Moment (Debye)
         X      -0.0000      Y       0.0000      Z       0.0000
       Tot       0.0000
    Quadrupole Moments (Debye-Ang)
        XX     -13.7794     XY      -0.0000     YY     -13.7794
        XZ       0.0000     YZ      -0.0000     ZZ      -7.2070
    Octopole Moments (Debye-Ang^2)
       XXX       0.0000    XXY       0.0000    XYY       0.0000
       YYY       0.0000    XXZ       0.0000    XYZ      -0.0000
       YYZ       0.0000    XZZ       0.0000    YZZ      -0.0000
       ZZZ       0.0000
    Hexadecapole Moments (Debye-Ang^3)
      XXXX     -17.4892   XXXY       0.0000   XXYY      -5.8297
      XYYY       0.0000   YYYY     -17.4892   XXXZ       0.0000
      XXYZ      -0.0000   XYYZ       0.0000   YYYZ      -0.0000
      XXZZ     -12.9438   XYZZ       0.0000   YYZZ     -12.9438
      XZZZ      -0.0000   YZZZ       0.0000   ZZZZ     -39.0393
 -----------------------------------------------------------------
Archival summary:
1\1\n0065.mhg0\SP\ProcedureUnspecified\BasisUnspecified\22\yhljason\WedOct2103:31:492020WedOct2103:31:492020\0\\#,ProcedureUnspecified,BasisUnspecified,\\0,1\C\H,1,1.0631\C,1,1.2026,2,180\H,3,1.0631,1,180,2,0,0\\\@

 Total job time:  29.51s(wall), 233.34s(cpu) 
 Wed Oct 21 03:31:49 2020

        *************************************************************
        *                                                           *
        *  Thank you very much for using Q-Chem.  Have a nice day.  *
        *                                                           *
        *************************************************************


 
User input: 7 of 7 
 
Q-Chem Developer Version!
                  Welcome to Q-Chem
     A Quantum Leap Into The Future Of Chemistry


 Q-Chem 5.1, Q-Chem, Inc., Pleasanton, CA (2018)

 Yihan Shao,  Zhengting Gan,  E. Epifanovsky,  A. T. B. Gilbert,  M. Wormit,  
 J. Kussmann,  A. W. Lange,  A. Behn,  Jia Deng,  Xintian Feng,  D. Ghosh,  
 M. Goldey,  P. R. Horn,  L. D. Jacobson,  I. Kaliman,  T. Kus,  A. Landau,  
 Jie Liu,  E. I. Proynov,  R. M. Richard,  R. P. Steele,  E. J. Sundstrom,  
 H. L. Woodcock III,  P. M. Zimmerman,  D. Zuev,  B. Albrecht,  E. Alguire,  
 S. A. Baeppler,  D. Barton,  Z. Benda,  Y. A. Bernard,  E. J. Berquist,  
 K. B. Bravaya,  H. Burton,  D. Casanova,  Chun-Min Chang,  Yunqing Chen,  
 A. Chien,  K. D. Closser,  M. P. Coons,  S. Coriani,  S. Dasgupta,  
 A. L. Dempwolff,  M. Diedenhofen,  Hainam Do,  R. G. Edgar,  Po-Tung Fang,  
 S. Faraji,  S. Fatehi,  Qingguo Feng,  K. D. Fenk,  J. Fosso-Tande,  
 Qinghui Ge,  A. Ghysels,  G. Gidofalvi,  J. Gomes,  J. Gonthier,  A. Gunina,  
 D. Hait,  M. W. D. Hanson-Heine,  P. H. P. Harbach,  A. W. Hauser,  
 J. E. Herr,  E. G. Hohenstein,  Z. C. Holden,  Kerwin Hui,  B. C. Huynh,  
 T.-C. Jagau,  Hyunjun Ji,  B. Kaduk,  K. Khistyaev,  Jaehoon Kim,  
 P. Klunzinger,  K. Koh,  D. Kosenkov,  L. Koulias,  T. Kowalczyk,  
 C. M. Krauter,  A. Kunitsa,  Ka Un Lao,  A. Laurent,  K. V. Lawler,  
 Joonho Lee,  D. Lefrancois,  S. Lehtola,  D. S. Levine,  Yi-Pei Li,  
 You-Sheng Lin,  Fenglai Liu,  E. Livshits,  A. Luenser,  P. Manohar,  
 E. Mansoor,  S. F. Manzer,  Shan-Ping Mao,  Yuezhi Mao,  N. Mardirossian,  
 A. V. Marenich,  T. Markovich,  L. A. Martinez-Martinez,  S. A. Maurer,  
 N. J. Mayhall,  S. C. McKenzie,  J.-M. Mewes,  A. F. Morrison,  
 J. W. Mullinax,  K. Nanda,  T. S. Nguyen-Beck,  R. Olivares-Amaya,  
 J. A. Parkhill,  T. M. Perrine,  F. Plasser,  P. Pokhilko,  S. Prager,  
 A. Prociuk,  E. Ramos,  D. R. Rehn,  F. Rob,  M. Schneider,  N. Sergueev,  
 S. M. Sharada,  S. Sharma,  D. W. Small,  T. Stauch,  T. Stein,  
 Yu-Chuan Su,  A. J. W. Thom,  A. Tkatchenko,  T. Tsuchimochi,  N. M. Tubman,  
 L. Vogt,  M. L. Vidal,  O. Vydrov,  M. A. Watson,  J. Wenzel,  
 M. de Wergifosse,  T. A. Wesolowski,  A. White,  J. Witte,  A. Yamada,  
 Jun Yang,  K. Yao,  S. Yeganeh,  S. R. Yost,  Zhi-Qiang You,  A. Zech,  
 Igor Ying Zhang,  Xing Zhang,  Yan Zhao,  Ying Zhu,  B. R. Brooks,  
 G. K. L. Chan,  C. J. Cramer,  M. S. Gordon,  W. J. Hehre,  A. Klamt,  
 M. W. Schmidt,  C. D. Sherrill,  D. G. Truhlar,  A. Aspuru-Guzik,  R. Baer,  
 A. T. Bell,  N. A. Besley,  Jeng-Da Chai,  A. E. DePrince, III,  
 R. A. DiStasio Jr.,  A. Dreuw,  B. D. Dunietz,  T. R. Furlani,  
 Chao-Ping Hsu,  Yousung Jung,  Jing Kong,  D. S. Lambrecht,  WanZhen Liang,  
 C. Ochsenfeld,  V. A. Rassolov,  L. V. Slipchenko,  J. E. Subotnik,  
 T. Van Voorhis,  J. M. Herbert,  A. I. Krylov,  P. M. W. Gill,  M. Head-Gordon

 Contributors to earlier versions of Q-Chem not listed above: 
 R. D. Adamson,  B. Austin,  J. Baker,  G. J. O. Beran,  K. Brandhorst,  
 S. T. Brown,  E. F. C. Byrd,  A. K. Chakraborty,  C.-L. Cheng,  
 Siu Hung Chien,  D. M. Chipman,  D. L. Crittenden,  H. Dachsel,  
 R. J. Doerksen,  A. D. Dutoi,  L. Fusti-Molnar,  W. A. Goddard III,  
 A. Golubeva-Zadorozhnaya,  S. R. Gwaltney,  G. Hawkins,  A. Heyden,  
 S. Hirata,  G. Kedziora,  F. J. Keil,  C. Kelley,  Jihan Kim,  R. A. King,  
 R. Z. Khaliullin,  P. P. Korambath,  W. Kurlancheek,  A. M. Lee,  M. S. Lee,  
 S. V. Levchenko,  Ching Yeh Lin,  D. Liotard,  R. C. Lochan,  I. Lotan,  
 P. E. Maslen,  N. Nair,  D. P. O'Neill,  D. Neuhauser,  E. Neuscamman,  
 C. M. Oana,  R. Olson,  B. Peters,  R. Peverati,  P. A. Pieniazek,  
 Y. M. Rhee,  J. Ritchie,  M. A. Rohrdanz,  E. Rosta,  N. J. Russ,  
 H. F. Schaefer III,  N. E. Schultz,  N. Shenvi,  A. C. Simmonett,  A. Sodt,  
 D. Stuck,  K. S. Thanthiriwatte,  V. Vanovschi,  Tao Wang,  A. Warshel,  
 C. F. Williams,  Q. Wu,  X. Xu,  W. Zhang

 Please cite Q-Chem as follows:
 Y. Shao et al., Mol. Phys. 113, 184-215 (2015)
 DOI: 10.1080/00268976.2014.952696

 Q-Chem 5.1.1 for Intel X86 EM64T Linux

 Parts of Q-Chem use Armadillo 8.300.2 (Tropical Shenanigans).
 http://arma.sourceforge.net/

 Q-Chem begins on Wed Oct 21 03:31:49 2020  

Host: n0065.mhg0
0

     Scratch files written to /local/scratch/users/yhljason/C2H2_XYGJOS_aug-cc-pcVTZ.inp20201021032837//
The previous job contains 0 fragments, simply inherited here
Input Ideriv = 2
Curr. Ideriv = -1
Max.  Ideriv = 2

Checking the input file for inconsistencies... 	...done.

--------------------------------------------------------------
User input:
--------------------------------------------------------------
$molecule
read
$end

$rem

jobtype sp
exchange XYGJOS
xc_grid 000099000590
basis aug-cc-pcVTZ
aux_basis rimp2-aug-cc-pVTZ
max_scf_cycles 200
thresh 14
scf_convergence 8
mem_total 128000
cc_memory 96000
cc_backend xm
mem_static 1500
symmetry false
sym_ignore true
scf_guess read
unrestricted false
scf_algorithm gdm
n_frozen_core 0
$end

$multipole_field
ZZ -0.0001
$end

--------------------------------------------------------------
 ----------------------------------------------------------------
             Standard Nuclear Orientation (Angstroms)
    I     Atom           X                Y                Z
 ----------------------------------------------------------------
    1      C       0.0000000000     0.0000000000     0.6013000000
    2      C       0.0000000000     0.0000000000    -0.6013000000
    3      H       0.0000000000     0.0000000000     1.6644000000
    4      H       0.0000000000     0.0000000000    -1.6644000000
 ----------------------------------------------------------------
 Nuclear Repulsion Energy =    24.7759017844 hartrees
 There are        7 alpha and        7 beta electrons
 Requested basis set is aug-cc-pCVTZ
 There are 56 shells and 164 basis functions

 Total QAlloc Memory Limit 128000 MB
 Mega-Array Size      1467 MB
 MEM_STATIC part      1500 MB

                       Distance Matrix (Angstroms)
             C (  1)   C (  2)   H (  3)
   C (  2)  1.202600
   H (  3)  1.063100  2.265700
   H (  4)  2.265700  1.063100  3.328800
 
 Applying Cartesian multipole field
    Component          Value
    ---------          -----
     (0,0,2)       -1.00000E-04
 Nucleus-field energy     =    -0.0035279246 hartrees
 Requested basis set is rimp2-aug-cc-pVTZ
 There are 84 shells and 304 basis functions
 A cutoff of  1.0D-14 yielded   1591 shell pairs
 There are     13743 function pairs (     18129 Cartesian)
 
 -------------------------------------------------------
 OpenMP Integral Computing Module                       
 Release: version 1.0, May 2013, Q-Chem Inc. Pittsburgh 
 -------------------------------------------------------
 Integral Job Info:
 Integral job number is                      11
 Integral operator is                         1
 short-range coefficients                     0
 long-range coefficients              100000000
 Omega coefficients                           0
 if combine SR and LR in K                    0
 Integral screening is                        0
 Integral computing path is                   2
 max size of driver memory is            800000
 size of driver memory is                776718
 size of scratch memory is              6691272
 max col of scratch BK array              10000
 max len of scratch array in speh3          662
 max len of scratch index in speh4           32
 max int batch size is                      520
 min int batch size is                       52
 fixed nKL is                                52
 max L of basis functions is                  3
 order of int derivative is                   0
 number of shells is                         56
 number of basis is                         188
 number of cartesian basis is               188
 number of contracted shell pairs          1591
 number of primitive shell pairs           4026
 maxK2 (contraction) of shell pair           64
 max number of K2 of shell pair               1
 max number of CS2 of shell pair            260
 max number of PS2 of shell pair            480
 mem total for path MDJ                  562704
 -------------------------------------------------------
 Smallest overlap matrix eigenvalue = 8.25E-06
 Guess MOs from SCF MO coefficient file
 Reading MOs from coefficient file
 Reading MOs from coefficient file
 A restricted hybrid HF-DFT SCF calculation will be
 performed using Geometric Direct Minimization
 Exchange:     0.2000 Hartree-Fock + 0.0800 Slater + 0.7200 B88
 Correlation:  0.1900 VWN1RPA + 0.8100 LYP
 Using Euler-Maclaurin-Lebedev (99,590) quadrature formula
 SCF converges when RMS gradient is below 1.0E-08
Using Q-Chem read-in guess as SCF_GUESS READ specified.

 using 8 threads for integral computing
 -------------------------------------------------------
 OpenMP Integral computing Module                
 Release: version 2.0, May 2017, Q-Chem Inc. Pleasanton 
 -------------------------------------------------------
TIMEINFO->: J/JK contribution 16.70 sec.
 -------------------------------------------------------
 OpenMP BLAS3 based DFT computing Module                
 Release: version 1.0, May 2013, Q-Chem Inc. Pittsburgh 
 -------------------------------------------------------
 ---------------------------------------
  Cycle       Energy        RMS Gradient
 ---------------------------------------
    1     -77.3658427379      1.02E-03 Normal BFGS step
TIMEINFO->: J/JK contribution 16.68 sec.
    2     -77.3658464495      5.48E-04 Normal BFGS step
TIMEINFO->: J/JK contribution 16.34 sec.
    3     -77.3658480281      1.36E-04 Normal BFGS step
TIMEINFO->: J/JK contribution 16.25 sec.
    4     -77.3658481155      2.03E-05 Normal BFGS step
TIMEINFO->: J/JK contribution 16.13 sec.
    5     -77.3658481184      1.50E-06 Normal BFGS step
TIMEINFO->: J/JK contribution 15.95 sec.
    6     -77.3658481184      1.35E-07 Normal BFGS step
TIMEINFO->: J/JK contribution 15.93 sec.
    7     -77.3658481184      1.90E-08 Normal BFGS step
TIMEINFO->: J/JK contribution 15.61 sec.
    8     -77.3658481184      3.12E-08 Normal BFGS step
TIMEINFO->: J/JK contribution 15.39 sec.
   GDM::WARNING energy changes are now smaller than effective accuracy.
   GDM::        calculation will continue, but THRESH should be increased
   GDM::        or SCF_CONVERGENCE decreased.
   GDM::        effective_thresh =   1.792504381037396E-009
    9     -77.3658481184      3.90E-08 Normal BFGS step
TIMEINFO->: J/JK contribution 15.26 sec.
   10     -77.3658481184      4.01E-10 Convergence criterion met
 ---------------------------------------
 B3LYP orbitals are now ready for the XYGJ-OS calculation.
 XYGJ-OS energy = Exch (0.7731 HF  + 0.2269 Slater) + 
                  Corr (0.2754 LYP + 0.2309 VWN1RPA + 0.4364 OS-MP2)
 SCF time:  CPU 244.46 s  wall 30.75 s
 SCF   energy in the final basis set = -76.97586898
 Total energy in the final basis set = -76.97586898
 Entering Scaled Opposite Spin MP2
 NBasAux in rimp2.F =          304

 OS-MP2 job begins now...

 SOS scaling factor =  0.4
 Form (P|Q)**(-1/2)...
 
 Form (ia|P)...
 Form BiaQ = (ia|P)*(P|Q)**(-1/2)...
 Laplace quadrature loop begins
 Laplace point 1: correlation energy     =        -0.0893345338
 Laplace point 2: correlation energy     =        -0.0877296189
 Laplace point 3: correlation energy     =        -0.1161106484
 Laplace point 4: correlation energy     =        -0.1027463193
 Laplace point 5: correlation energy     =        -0.0455316690
 Laplace point 6: correlation energy     =        -0.0077911707
 Laplace point 7: correlation energy     =        -0.0001787079
 
 singles contribution not yet available for XYGJ-OS 
 Total OS-MP2 correlation energy         =        -0.4494226681

 Total XYGJ-OS energy                    =       -77.1719970346
 
 ------------------------------------------------------------------------------
                     SOSMP2        : Timing summary (seconds)
 ------------------------------------------------------------------------------
     job step          cpu (% of tot)      sys (% of tot)     wall (% of tot)
 ------------------------------------------------------------------------------
  Form inv (P|Q)    0.6359E+00 ( 7.7)   0.4000E-05 (12.1)   0.8019E-01 ( 7.5)
  Form (ia|P)       0.5446E+01 (65.9)   0.1800E-04 (54.5)   0.6848E+00 (64.0)
  Form  BiaQ        0.2625E+00 ( 3.2)   0.1000E-05 ( 3.0)   0.3294E-01 ( 3.1)
  LP orbitals       0.2866E+00 ( 3.5)   0.3000E-05 ( 9.1)   0.4047E-01 ( 3.8)
  Form  X(PQ)       0.1152E+01 (13.9)   0.6000E-05 (18.2)   0.1614E+00 (15.1)
  Increment EMP2    0.3242E+00 ( 3.9)   0.0000E+00 ( 0.0)   0.4962E-01 ( 4.6)
 ------------------------------------------------------------------------------
   Grand Totals     0.8265E+01          0.3300E-04          0.1070E+01
 ------------------------------------------------------------------------------
 
 --------------------------------------------------------------
 
                    Orbital Energies (a.u.)
 --------------------------------------------------------------
 
 Alpha MOs
 -- Occupied --
-10.187 -10.184  -0.759  -0.574  -0.504  -0.301  -0.301
 -- Virtual --
  0.002   0.010   0.010   0.012   0.050   0.050   0.059   0.075
  0.097   0.099   0.099   0.147   0.186   0.204   0.204   0.206
  0.211   0.211   0.297   0.297   0.303   0.314   0.314   0.315
  0.339   0.350   0.350   0.367   0.367   0.439   0.496   0.496
  0.500   0.509   0.699   0.699   0.734   0.740   0.749   0.749
  0.800   0.800   0.816   0.840   0.840   0.884   0.884   0.888
  0.888   0.891   0.891   0.908   0.984   1.013   1.013   1.035
  1.035   1.057   1.128   1.134   1.134   1.231   1.231   1.358
  1.358   1.425   1.460   1.460   1.556   1.556   1.697   1.697
  1.722   1.752   1.794   1.828   1.828   1.918   2.137   2.137
  2.238   2.427   2.427   2.623   2.744   2.847   2.847   2.875
  2.875   3.003   3.003   3.059   3.059   3.134   3.134   3.147
  3.261   3.261   3.368   3.392   3.392   3.408   3.408   3.432
  3.473   3.473   3.788   3.788   3.860   3.860   3.898   3.971
  4.341   4.351   4.351   4.436   4.436   4.439   4.439   4.695
  4.719   4.719   5.200   5.491   5.491   5.550   6.211   6.394
  6.394   6.993   7.164  14.980  14.980  15.712  15.712  16.216
 16.328  17.450  17.669  40.423  40.423  40.484  40.484  40.502
 40.502  40.654  40.690  40.690  41.318  79.702  79.702  80.260
 80.260  80.650  81.439  84.652  87.025
 --------------------------------------------------------------
 
          Ground-State Mulliken Net Atomic Charges

     Atom                 Charge (a.u.)
  ----------------------------------------
      1 C                    -0.563444
      2 C                    -0.563444
      3 H                     0.563444
      4 H                     0.563444
  ----------------------------------------
  Sum of atomic charges =     0.000000

 -----------------------------------------------------------------
                    Cartesian Multipole Moments
 -----------------------------------------------------------------
    Charge (ESU x 10^10)
                 0.0000
    Dipole Moment (Debye)
         X       0.0000      Y       0.0000      Z      -0.0000
       Tot       0.0000
    Quadrupole Moments (Debye-Ang)
        XX     -13.7800     XY      -0.0000     YY     -13.7800
        XZ       0.0000     YZ      -0.0000     ZZ      -7.1347
    Octopole Moments (Debye-Ang^2)
       XXX       0.0000    XXY       0.0000    XYY       0.0000
       YYY       0.0000    XXZ      -0.0000    XYZ       0.0000
       YYZ      -0.0000    XZZ       0.0000    YZZ      -0.0000
       ZZZ      -0.0000
    Hexadecapole Moments (Debye-Ang^3)
      XXXX     -17.4893   XXXY       0.0000   XXYY      -5.8298
      XYYY       0.0000   YYYY     -17.4893   XXXZ       0.0000
      XXYZ      -0.0000   XYYZ       0.0000   YYYZ      -0.0000
      XXZZ     -12.9059   XYZZ       0.0000   YYZZ     -12.9059
      XZZZ      -0.0000   YZZZ       0.0000   ZZZZ     -38.5950
 -----------------------------------------------------------------
Archival summary:
1\1\n0065.mhg0\SP\ProcedureUnspecified\BasisUnspecified\22\yhljason\WedOct2103:32:222020WedOct2103:32:222020\0\\#,ProcedureUnspecified,BasisUnspecified,\\0,1\C\H,1,1.0631\C,1,1.2026,2,180\H,3,1.0631,1,180,2,0,0\\\@

 Total job time:  32.70s(wall), 258.26s(cpu) 
 Wed Oct 21 03:32:22 2020

        *************************************************************
        *                                                           *
        *  Thank you very much for using Q-Chem.  Have a nice day.  *
        *                                                           *
        *************************************************************


