Q-Chem Developer Version!
                  Welcome to Q-Chem
     A Quantum Leap Into The Future Of Chemistry


 Q-Chem 5.1, Q-Chem, Inc., Pleasanton, CA (2018)

 Yihan Shao,  Zhengting Gan,  E. Epifanovsky,  A. T. B. Gilbert,  M. Wormit,  
 J. Kussmann,  A. W. Lange,  A. Behn,  Jia Deng,  Xintian Feng,  D. Ghosh,  
 M. Goldey,  P. R. Horn,  L. D. Jacobson,  I. Kaliman,  T. Kus,  A. Landau,  
 Jie Liu,  E. I. Proynov,  R. M. Richard,  R. P. Steele,  E. J. Sundstrom,  
 H. L. Woodcock III,  P. M. Zimmerman,  D. Zuev,  B. Albrecht,  E. Alguire,  
 S. A. Baeppler,  D. Barton,  Z. Benda,  Y. A. Bernard,  E. J. Berquist,  
 K. B. Bravaya,  H. Burton,  D. Casanova,  Chun-Min Chang,  Yunqing Chen,  
 A. Chien,  K. D. Closser,  M. P. Coons,  S. Coriani,  S. Dasgupta,  
 A. L. Dempwolff,  M. Diedenhofen,  Hainam Do,  R. G. Edgar,  Po-Tung Fang,  
 S. Faraji,  S. Fatehi,  Qingguo Feng,  K. D. Fenk,  J. Fosso-Tande,  
 Qinghui Ge,  A. Ghysels,  G. Gidofalvi,  J. Gomes,  J. Gonthier,  A. Gunina,  
 D. Hait,  M. W. D. Hanson-Heine,  P. H. P. Harbach,  A. W. Hauser,  
 J. E. Herr,  E. G. Hohenstein,  Z. C. Holden,  Kerwin Hui,  B. C. Huynh,  
 T.-C. Jagau,  Hyunjun Ji,  B. Kaduk,  K. Khistyaev,  Jaehoon Kim,  
 P. Klunzinger,  K. Koh,  D. Kosenkov,  L. Koulias,  T. Kowalczyk,  
 C. M. Krauter,  A. Kunitsa,  Ka Un Lao,  A. Laurent,  K. V. Lawler,  
 Joonho Lee,  D. Lefrancois,  S. Lehtola,  D. S. Levine,  Yi-Pei Li,  
 You-Sheng Lin,  Fenglai Liu,  E. Livshits,  A. Luenser,  P. Manohar,  
 E. Mansoor,  S. F. Manzer,  Shan-Ping Mao,  Yuezhi Mao,  N. Mardirossian,  
 A. V. Marenich,  T. Markovich,  L. A. Martinez-Martinez,  S. A. Maurer,  
 N. J. Mayhall,  S. C. McKenzie,  J.-M. Mewes,  A. F. Morrison,  
 J. W. Mullinax,  K. Nanda,  T. S. Nguyen-Beck,  R. Olivares-Amaya,  
 J. A. Parkhill,  T. M. Perrine,  F. Plasser,  P. Pokhilko,  S. Prager,  
 A. Prociuk,  E. Ramos,  D. R. Rehn,  F. Rob,  M. Schneider,  N. Sergueev,  
 S. M. Sharada,  S. Sharma,  D. W. Small,  T. Stauch,  T. Stein,  
 Yu-Chuan Su,  A. J. W. Thom,  A. Tkatchenko,  T. Tsuchimochi,  N. M. Tubman,  
 L. Vogt,  M. L. Vidal,  O. Vydrov,  M. A. Watson,  J. Wenzel,  
 M. de Wergifosse,  T. A. Wesolowski,  A. White,  J. Witte,  A. Yamada,  
 Jun Yang,  K. Yao,  S. Yeganeh,  S. R. Yost,  Zhi-Qiang You,  A. Zech,  
 Igor Ying Zhang,  Xing Zhang,  Yan Zhao,  Ying Zhu,  B. R. Brooks,  
 G. K. L. Chan,  C. J. Cramer,  M. S. Gordon,  W. J. Hehre,  A. Klamt,  
 M. W. Schmidt,  C. D. Sherrill,  D. G. Truhlar,  A. Aspuru-Guzik,  R. Baer,  
 A. T. Bell,  N. A. Besley,  Jeng-Da Chai,  A. E. DePrince, III,  
 R. A. DiStasio Jr.,  A. Dreuw,  B. D. Dunietz,  T. R. Furlani,  
 Chao-Ping Hsu,  Yousung Jung,  Jing Kong,  D. S. Lambrecht,  WanZhen Liang,  
 C. Ochsenfeld,  V. A. Rassolov,  L. V. Slipchenko,  J. E. Subotnik,  
 T. Van Voorhis,  J. M. Herbert,  A. I. Krylov,  P. M. W. Gill,  M. Head-Gordon

 Contributors to earlier versions of Q-Chem not listed above: 
 R. D. Adamson,  B. Austin,  J. Baker,  G. J. O. Beran,  K. Brandhorst,  
 S. T. Brown,  E. F. C. Byrd,  A. K. Chakraborty,  C.-L. Cheng,  
 Siu Hung Chien,  D. M. Chipman,  D. L. Crittenden,  H. Dachsel,  
 R. J. Doerksen,  A. D. Dutoi,  L. Fusti-Molnar,  W. A. Goddard III,  
 A. Golubeva-Zadorozhnaya,  S. R. Gwaltney,  G. Hawkins,  A. Heyden,  
 S. Hirata,  G. Kedziora,  F. J. Keil,  C. Kelley,  Jihan Kim,  R. A. King,  
 R. Z. Khaliullin,  P. P. Korambath,  W. Kurlancheek,  A. M. Lee,  M. S. Lee,  
 S. V. Levchenko,  Ching Yeh Lin,  D. Liotard,  R. C. Lochan,  I. Lotan,  
 P. E. Maslen,  N. Nair,  D. P. O'Neill,  D. Neuhauser,  E. Neuscamman,  
 C. M. Oana,  R. Olson,  B. Peters,  R. Peverati,  P. A. Pieniazek,  
 Y. M. Rhee,  J. Ritchie,  M. A. Rohrdanz,  E. Rosta,  N. J. Russ,  
 H. F. Schaefer III,  N. E. Schultz,  N. Shenvi,  A. C. Simmonett,  A. Sodt,  
 D. Stuck,  K. S. Thanthiriwatte,  V. Vanovschi,  Tao Wang,  A. Warshel,  
 C. F. Williams,  Q. Wu,  X. Xu,  W. Zhang

 Please cite Q-Chem as follows:
 Y. Shao et al., Mol. Phys. 113, 184-215 (2015)
 DOI: 10.1080/00268976.2014.952696

 Q-Chem 5.1.1 for Intel X86 EM64T Linux

 Parts of Q-Chem use Armadillo 8.300.2 (Tropical Shenanigans).
 http://arma.sourceforge.net/

 Q-Chem begins on Fri Oct 23 03:22:44 2020  

Host: n0049.mhg0
0

     Scratch files written to /local/scratch/users/yhljason/CH3_XYGJOS_aug-cc-pcV5Z.inp20201023032241//
Input Ideriv = 1
Curr. Ideriv = -1
Max.  Ideriv = 1

Checking the input file for inconsistencies... 	...done.

--------------------------------------------------------------
User input:
--------------------------------------------------------------
$molecule
0 2
C1 0.0000   0.0000   0.0000
H2 1.0790   0.0000   0.0000
H3 -0.5395  -0.9344  0.0000
H4 -0.5395  0.9344   0.0000
$end

$rem
jobtype sp
exchange XYGJOS
xc_grid 000099000590
basis aug-cc-pcV5Z
aux_basis rimp2-aug-cc-pVQZ
max_scf_cycles 200
thresh 14
scf_convergence 8
scf_algorithm gdm
symmetry false
sym_ignore true
unrestricted false
gen_scfman false
internal_stability_iter 15
internal_stability_davidson_iter 200
mem_total 128000
cc_memory 96000
cc_backend xm
mem_static 1500
n_frozen_core 1000
$end



--------------------------------------------------------------
 ----------------------------------------------------------------
             Standard Nuclear Orientation (Angstroms)
    I     Atom           X                Y                Z
 ----------------------------------------------------------------
    1      C       0.0000000000     0.0000000000     0.0000000000
    2      H       1.0790000000     0.0000000000     0.0000000000
    3      H      -0.5395000000    -0.9344000000     0.0000000000
    4      H      -0.5395000000     0.9344000000     0.0000000000
 ----------------------------------------------------------------
 Nuclear Repulsion Energy =     9.6774633775 hartrees
 There are        5 alpha and        4 beta electrons
 Requested basis set is aug-cc-pCV5Z
 There are 101 shells and 421 basis functions

 Total QAlloc Memory Limit 128000 MB
 Mega-Array Size      1467 MB
 MEM_STATIC part      1500 MB

                       Distance Matrix (Angstroms)
             C (  1)   H (  2)   H (  3)
   H (  2)  1.079000
   H (  3)  1.078964  1.868862
   H (  4)  1.078964  1.868862  1.868800
 
 Requested basis set is rimp2-aug-cc-pVQZ
 There are 96 shells and 408 basis functions
 A cutoff of  1.0D-14 yielded   5151 shell pairs
 There are     89891 function pairs (    162981 Cartesian)
 
 -------------------------------------------------------
 OpenMP Integral Computing Module                       
 Release: version 1.0, May 2013, Q-Chem Inc. Pittsburgh 
 -------------------------------------------------------
 Integral Job Info:
 Integral job number is                      11
 Integral operator is                         1
 short-range coefficients                     0
 long-range coefficients              100000000
 Omega coefficients                           0
 if combine SR and LR in K                    0
 Integral screening is                        0
 Integral computing path is                   2
 max size of driver memory is           6400000
 size of driver memory is               5498286
 size of scratch memory is             29551430
 max col of scratch BK array             194481
 max len of scratch array in speh3         5572
 max len of scratch index in speh4           72
 max int batch size is                      520
 min int batch size is                       52
 fixed nKL is                                30
 max L of basis functions is                  5
 order of int derivative is                   0
 number of shells is                        101
 number of basis is                         566
 number of cartesian basis is               566
 number of contracted shell pairs          5151
 number of primitive shell pairs           8424
 maxK2 (contraction) of shell pair          100
 max number of K2 of shell pair               1
 max number of CS2 of shell pair            588
 max number of PS2 of shell pair            588
 mem total for path MDJ                 1097632
 -------------------------------------------------------
 Smallest overlap matrix eigenvalue = 4.80E-06

 Scale SEOQF with 1.000000e-01/1.000000e-01/1.000000e-01

 Standard Electronic Orientation quadrupole field applied
 Nucleus-field energy     =     0.0000000002 hartrees
 Constructing guess Fock matrix from core Hamiltonian
 Applying Wolfsberg-Helmholtz approximation
 A restricted hybrid HF-DFT SCF calculation will be
 performed using Geometric Direct Minimization
 Exchange:     0.2000 Hartree-Fock + 0.0800 Slater + 0.7200 B88
 Correlation:  0.1900 VWN1RPA + 0.8100 LYP
 Using Euler-Maclaurin-Lebedev (99,590) quadrature formula
 SCF converges when RMS gradient is below 1.0E-08
 using 8 threads for integral computing
 -------------------------------------------------------
 OpenMP Integral computing Module                
 Release: version 2.0, May 2017, Q-Chem Inc. Pleasanton 
 -------------------------------------------------------
 LTot/LBra/LKet=          19           9          10
 LTot/LBra/LKet=          20          10          10

 Q-Chem warning:

 in GenH1, ket side, handled with new code


 Q-Chem warning:

 in GenH1, ket side, handled with new code

 LTot/LBra/LKet=          19           9          10
 LTot/LBra/LKet=          19           9          10
 LTot/LBra/LKet=          20          10          10
 LTot/LBra/LKet=          19           9          10
 LTot/LBra/LKet=          20          10          10
 LTot/LBra/LKet=          19           9          10

 Q-Chem warning:

 in GenH1, ket side, handled with new code


 Q-Chem warning:

 in GenH1, ket side, handled with new code


 Q-Chem warning:

 in GenH1, ket side, handled with new code


 Q-Chem warning:

 in GenH1, ket side, handled with new code


 Q-Chem warning:

 in GenH1, ket side, handled with new code


 Q-Chem warning:

 in GenH1, ket side, handled with new code

 LTot/LBra/LBra=          20          10          10

 Q-Chem warning:

 in GenH1, bra side, handled with new code

TIMEINFO->: J/JK contribution 1575.23 sec.
 -------------------------------------------------------
 OpenMP BLAS3 based DFT computing Module                
 Release: version 1.0, May 2013, Q-Chem Inc. Pittsburgh 
 -------------------------------------------------------
 ---------------------------------------
  Cycle       Energy        RMS Gradient
 ---------------------------------------
    1    2781.8330278276      5.02E+01 Descent step
TIMEINFO->: J/JK contribution 1564.27 sec.
    2    2752.7184932040      2.21E+03 Line search: understep
TIMEINFO->: J/JK contribution 1588.21 sec.
    3    2493.5226615556      3.87E+01 Descent step
TIMEINFO->: J/JK contribution 1565.13 sec.
    4    2466.8197622090      6.97E+01 Line search: understep
TIMEINFO->: J/JK contribution 1584.54 sec.
    5    2234.5476083895      2.62E+01 Descent step
TIMEINFO->: J/JK contribution 1568.94 sec.
    6    2217.8688873706      2.75E+02 Line search: understep
TIMEINFO->: J/JK contribution 1573.40 sec.
    7    2070.8836793173      3.29E+02 Line search: understep
TIMEINFO->: J/JK contribution 1589.31 sec.
    8    1278.2040795224      3.81E+01 Descent step
TIMEINFO->: J/JK contribution 1558.29 sec.
   GDM::BFGS:   rebuilding Hinv to be positive definite
    9    1262.1759103575      1.79E+01 Descent step
TIMEINFO->: J/JK contribution 1583.65 sec.
   10    1252.4749333793      1.24E+02 Line search: understep
TIMEINFO->: J/JK contribution 1581.39 sec.
   GDM::BFGS:   rebuilding Hinv to be positive definite
   11    1168.1866488549      1.39E+01 Descent step
TIMEINFO->: J/JK contribution 1571.88 sec.
   12    1160.4222024363      1.33E+02 Line search: understep
TIMEINFO->: J/JK contribution 1574.56 sec.
   GDM::BFGS:   rebuilding Hinv to be positive definite
   13    1090.7911692390      1.12E+01 Descent step
TIMEINFO->: J/JK contribution 1571.68 sec.
   14    1082.7954906381      1.45E+02 Line search: understep
TIMEINFO->: J/JK contribution 1557.24 sec.
   15    1009.3658146939      1.46E+02 Line search: understep
TIMEINFO->: J/JK contribution 1573.06 sec.
   GDM::BFGS:   rebuilding Hinv to be positive definite
   16     484.1660902951      1.07E+01 Descent step
TIMEINFO->: J/JK contribution 1583.97 sec.
   17     475.5117719247      7.34E+01 Line search: understep
TIMEINFO->: J/JK contribution 1574.30 sec.
   GDM::BFGS:   rebuilding Hinv to be positive definite
   18     398.7318339887      1.29E+01 Descent step
TIMEINFO->: J/JK contribution 1567.79 sec.
   19     388.2433443681      2.41E+01 Line search: understep
TIMEINFO->: J/JK contribution 1562.10 sec.
   GDM::BFGS:   rebuilding Hinv to be positive definite
   20     305.4032427388      1.02E+01 Descent step
TIMEINFO->: J/JK contribution 1563.87 sec.
   21     297.1583334433      3.13E+01 Line search: understep
TIMEINFO->: J/JK contribution 1586.26 sec.
   GDM::BFGS:   rebuilding Hinv to be positive definite
   22     230.5128135022      7.34E+00 Descent step
TIMEINFO->: J/JK contribution 1566.19 sec.
   23     222.9204622775      3.63E+01 Line search: understep
TIMEINFO->: J/JK contribution 1563.57 sec.
   GDM::BFGS:   rebuilding Hinv to be positive definite
   24     185.2337079002      6.44E+00 Descent step
TIMEINFO->: J/JK contribution 1572.20 sec.
   25     178.9935776492      1.81E+02 Line search: understep
TIMEINFO->: J/JK contribution 1573.83 sec.
   GDM::BFGS:   rebuilding Hinv to be positive definite
   26     156.6192365291      7.94E+00 Descent step
TIMEINFO->: J/JK contribution 1566.01 sec.
   GDM::BFGS:   rebuilding Hinv to be positive definite
   27     150.5007456085      4.53E+00 Descent step
TIMEINFO->: J/JK contribution 1589.53 sec.
   28     145.6446942700      1.99E+02 Line search: understep
TIMEINFO->: J/JK contribution 1566.54 sec.
   GDM::BFGS:   rebuilding Hinv to be positive definite
   29     116.3028324414      1.03E+01 Descent step
TIMEINFO->: J/JK contribution 1588.20 sec.
   30     111.4906795496      1.82E+02 Line search: understep
TIMEINFO->: J/JK contribution 1569.55 sec.
   GDM::BFGS:   rebuilding Hinv to be positive definite
   31      70.1672279254      1.31E+01 Descent step
TIMEINFO->: J/JK contribution 1573.14 sec.
   GDM::BFGS:   rebuilding Hinv to be positive definite
   32      64.2026518118      1.12E+01 Descent step
TIMEINFO->: J/JK contribution 1584.82 sec.
   33      59.4445841967      1.48E+02 Line search: understep
TIMEINFO->: J/JK contribution 1562.51 sec.
   GDM::BFGS:   rebuilding Hinv to be positive definite
   34      24.3214829484      4.39E+00 Descent step
TIMEINFO->: J/JK contribution 1561.58 sec.
   GDM::BFGS:   rebuilding Hinv to be positive definite
   35      21.5365092180      3.70E+00 Descent step
TIMEINFO->: J/JK contribution 1583.33 sec.
   36      19.2115626322      5.14E+01 Line search: understep
TIMEINFO->: J/JK contribution 1557.29 sec.
   GDM::BFGS:   rebuilding Hinv to be positive definite
   37       7.2599464231      3.20E+00 Descent step
TIMEINFO->: J/JK contribution 1570.76 sec.
   38       5.1352230109      2.28E+01 Line search: understep
TIMEINFO->: J/JK contribution 1574.99 sec.
   GDM::BFGS:   rebuilding Hinv to be positive definite
   39      -3.1283714436      2.12E+00 Descent step
TIMEINFO->: J/JK contribution 1562.17 sec.
   40      -4.8475348675      2.32E+00 Descent step
TIMEINFO->: J/JK contribution 1576.51 sec.
   41      -6.5689268426      1.79E+00 Descent step
TIMEINFO->: J/JK contribution 1574.48 sec.
   42      -8.2078043622      9.94E+00 Line search: understep
TIMEINFO->: J/JK contribution 1566.77 sec.
   43     -10.7605659729      2.25E+00 Descent step
TIMEINFO->: J/JK contribution 1580.01 sec.
   44     -12.4354408691      2.55E+00 Descent step
TIMEINFO->: J/JK contribution 1568.21 sec.
   45     -14.0691030409      1.32E+00 Descent step
TIMEINFO->: J/JK contribution 1555.45 sec.
   46     -15.3496241492      1.03E+00 Descent step
TIMEINFO->: J/JK contribution 1575.93 sec.
   47     -16.3920128831      2.64E+00 Line search: understep
TIMEINFO->: J/JK contribution 1563.94 sec.
   48     -19.0175627575      1.34E+00 Descent step
TIMEINFO->: J/JK contribution 1558.74 sec.
   49     -20.1568989724      1.47E+00 Descent step
TIMEINFO->: J/JK contribution 1578.22 sec.
   50     -21.3479931021      2.00E+00 Descent step
TIMEINFO->: J/JK contribution 1559.92 sec.
   51     -22.7302219600      1.56E+00 Descent step
TIMEINFO->: J/JK contribution 1561.08 sec.
   52     -23.8224251768      8.29E-01 Descent step
TIMEINFO->: J/JK contribution 1581.20 sec.
   53     -24.7054101629      7.84E-01 Descent step
TIMEINFO->: J/JK contribution 1561.92 sec.
   54     -25.5583223671      9.50E-01 Descent step
TIMEINFO->: J/JK contribution 1580.77 sec.
   55     -26.4028126597      8.47E-01 Descent step
TIMEINFO->: J/JK contribution 1579.14 sec.
   56     -27.1976525677      8.84E-01 Descent step
TIMEINFO->: J/JK contribution 1566.24 sec.
   57     -27.9801490656      8.81E-01 Descent step
TIMEINFO->: J/JK contribution 1575.67 sec.
   58     -28.7805039694      1.02E+00 Descent step
TIMEINFO->: J/JK contribution 1570.77 sec.
   59     -29.6506519015      1.19E+00 Descent step
TIMEINFO->: J/JK contribution 1554.58 sec.
   60     -30.4877644251      1.44E+00 Descent step
TIMEINFO->: J/JK contribution 1577.20 sec.
   61     -31.2456163464      1.92E+00 Descent step
TIMEINFO->: J/JK contribution 1567.09 sec.
   62     -32.0753600104      3.94E+00 Descent step
TIMEINFO->: J/JK contribution 1572.14 sec.
   63     -33.3038192191      1.01E+00 Descent step
TIMEINFO->: J/JK contribution 1571.71 sec.
   64     -33.8767784421      6.77E-01 Descent step
TIMEINFO->: J/JK contribution 1558.42 sec.
   65     -34.3962595654      8.11E-01 Descent step
TIMEINFO->: J/JK contribution 1576.01 sec.
   66     -34.9081276093      9.90E-01 Descent step
TIMEINFO->: J/JK contribution 1569.94 sec.
   67     -35.4711142922      1.17E+00 Descent step
TIMEINFO->: J/JK contribution 1557.48 sec.
   68     -36.0858511825      1.13E+00 Descent step
TIMEINFO->: J/JK contribution 1582.51 sec.
   69     -36.6860140412      2.03E+00 Descent step
TIMEINFO->: J/JK contribution 1588.74 sec.
   70     -37.4198622610      7.02E-01 Descent step
TIMEINFO->: J/JK contribution 1574.75 sec.
   71     -37.8320183376      1.45E+00 Descent step
TIMEINFO->: J/JK contribution 1585.80 sec.
   72     -38.3224327401      5.58E-01 Descent step
TIMEINFO->: J/JK contribution 1572.92 sec.
   73     -38.5486503243      2.19E-01 Descent step
TIMEINFO->: J/JK contribution 1568.21 sec.
   74     -38.6571383480      3.19E-01 Descent step
TIMEINFO->: J/JK contribution 1591.80 sec.
   GDM::BFGS:   rebuilding Hinv to be positive definite
   75     -38.8136621737      1.04E+00 Descent step
TIMEINFO->: J/JK contribution 1569.81 sec.
   76     -39.0302846407      2.02E-01 Descent step
TIMEINFO->: J/JK contribution 1570.99 sec.
   77     -39.0464151390      3.76E-01 Descent step
TIMEINFO->: J/JK contribution 1583.25 sec.
   78     -39.0339604619      6.97E-01 Line search: overstep
TIMEINFO->: J/JK contribution 1564.99 sec.
   79     -39.0791264023      4.82E-02 Normal BFGS step
TIMEINFO->: J/JK contribution 1540.37 sec.
   80     -39.0806125235      3.51E-02 Normal BFGS step
TIMEINFO->: J/JK contribution 1405.39 sec.
   81     -39.0748532511      6.84E-01 Line search: overstep
TIMEINFO->: J/JK contribution 1403.54 sec.
   82     -39.0814613567      3.03E-02 Normal BFGS step
TIMEINFO->: J/JK contribution 1400.10 sec.
   83     -39.0827025704      1.88E-02 Normal BFGS step
TIMEINFO->: J/JK contribution 1399.45 sec.
   84     -39.0803680396      1.48E-01 Line search: overstep
TIMEINFO->: J/JK contribution 1398.16 sec.
   85     -39.0832173831      1.93E-02 Normal BFGS step
TIMEINFO->: J/JK contribution 1400.01 sec.
   86     -39.0838351585      1.85E-02 Normal BFGS step
TIMEINFO->: J/JK contribution 1394.36 sec.
   87     -39.0841832955      1.50E-02 Normal BFGS step
TIMEINFO->: J/JK contribution 1404.36 sec.
   88     -39.0844379050      1.13E-02 Normal BFGS step
TIMEINFO->: J/JK contribution 1388.64 sec.
   89     -39.0842770054      2.13E-01 Line search: overstep
TIMEINFO->: J/JK contribution 1393.82 sec.
   90     -39.0846640361      8.13E-03 Normal BFGS step
TIMEINFO->: J/JK contribution 1404.45 sec.
   91     -39.0846024154      3.98E-02 Line search: overstep
TIMEINFO->: J/JK contribution 1394.15 sec.
   92     -39.0847599321      3.04E-03 Normal BFGS step
TIMEINFO->: J/JK contribution 1399.71 sec.
   93     -39.0847794870      1.76E-03 Normal BFGS step
TIMEINFO->: J/JK contribution 1391.43 sec.
   94     -39.0847885085      3.07E-03 Normal BFGS step
TIMEINFO->: J/JK contribution 1404.41 sec.
   95     -39.0848228165      2.27E-02 Line search: understep
TIMEINFO->: J/JK contribution 1396.66 sec.
   96     -39.0863032123      2.23E-01 Line search: understep
TIMEINFO->: J/JK contribution 1389.35 sec.
   GDM::BFGS:   rebuilding Hinv to be positive definite
   97     -39.1667391314      6.33E-01 Descent step
TIMEINFO->: J/JK contribution 1396.82 sec.
   98     -39.4066546276      1.30E+00 Descent step
TIMEINFO->: J/JK contribution 1402.37 sec.
   99     -39.5551084464      3.17E-01 Descent step
TIMEINFO->: J/JK contribution 1394.63 sec.
  100     -39.6011060366      1.67E-01 Normal BFGS step
TIMEINFO->: J/JK contribution 1406.41 sec.
  101     -39.6083287884      7.32E-02 Dog-leg BFGS step
TIMEINFO->: J/JK contribution 1405.91 sec.
  102     -39.5647624564      8.78E-02 Line search: overstep
TIMEINFO->: J/JK contribution 1391.64 sec.
  103     -39.6124145926      4.34E-02 Dog-leg BFGS step
TIMEINFO->: J/JK contribution 1398.60 sec.
  104     -39.6099313741      8.88E-02 Line search: overstep
TIMEINFO->: J/JK contribution 1393.04 sec.
  105     -39.6137592242      9.71E-03 Normal BFGS step
TIMEINFO->: J/JK contribution 1397.08 sec.
  106     -39.6138337618      8.69E-03 Normal BFGS step
TIMEINFO->: J/JK contribution 1397.12 sec.
  107     -39.6140181860      1.28E-02 Line search: understep
TIMEINFO->: J/JK contribution 1389.52 sec.
  108     -39.6154100329      1.88E-01 Dog-leg BFGS step
TIMEINFO->: J/JK contribution 1395.58 sec.
   GDM::BFGS:   rebuilding Hinv to be positive definite
  109     -39.7482804243      3.30E-01 Descent step
TIMEINFO->: J/JK contribution 1393.62 sec.
  110     -39.8463322462      1.26E-01 Dog-leg BFGS step
TIMEINFO->: J/JK contribution 1397.70 sec.
  111     -39.8451930955      9.39E-02 Line search: overstep
TIMEINFO->: J/JK contribution 1400.59 sec.
  112     -39.8588445039      4.08E-02 Dog-leg BFGS step
TIMEINFO->: J/JK contribution 1395.38 sec.
  113     -39.8606632421      1.71E-02 Dog-leg BFGS step
TIMEINFO->: J/JK contribution 1396.94 sec.
  114     -39.8560948783      1.75E-01 Line search: overstep
TIMEINFO->: J/JK contribution 1393.16 sec.
  115     -39.8611590216      1.98E-02 Descent step
TIMEINFO->: J/JK contribution 1393.76 sec.
  116     -39.8616707371      1.03E-02 Normal BFGS step
TIMEINFO->: J/JK contribution 1395.34 sec.
  117     -39.8617605094      4.23E-03 Normal BFGS step
TIMEINFO->: J/JK contribution 1394.27 sec.
  118     -39.8617657525      2.19E-03 Normal BFGS step
TIMEINFO->: J/JK contribution 1384.86 sec.
  119     -39.8617724820      5.25E-04 Normal BFGS step
TIMEINFO->: J/JK contribution 1384.06 sec.
  120     -39.8617733410      2.91E-04 Normal BFGS step
TIMEINFO->: J/JK contribution 1398.30 sec.
  121     -39.8617734390      5.26E-05 Normal BFGS step
TIMEINFO->: J/JK contribution 1374.53 sec.
  122     -39.8617734500      3.90E-05 Normal BFGS step
TIMEINFO->: J/JK contribution 1363.81 sec.
  123     -39.8617734521      2.08E-05 Normal BFGS step
TIMEINFO->: J/JK contribution 1355.59 sec.
  124     -39.8617734524      4.27E-06 Normal BFGS step
TIMEINFO->: J/JK contribution 1345.54 sec.
  125     -39.8617734524      2.38E-06 Normal BFGS step
TIMEINFO->: J/JK contribution 1328.37 sec.
  126     -39.8617734524      4.55E-07 Normal BFGS step
TIMEINFO->: J/JK contribution 1308.58 sec.
  127     -39.8617734524      2.02E-07 Normal BFGS step
TIMEINFO->: J/JK contribution 1262.83 sec.
  128     -39.8617734524      2.23E-08 Normal BFGS step
TIMEINFO->: J/JK contribution 1205.87 sec.
  129     -39.8617734524      1.20E-08 Normal BFGS step
TIMEINFO->: J/JK contribution 1144.26 sec.
  130     -39.8617734524      2.05E-09 Convergence criterion met
 ---------------------------------------
 B3LYP orbitals are now ready for the XYGJ-OS calculation.
 XYGJ-OS energy = Exch (0.7731 HF  + 0.2269 Slater) + 
                  Corr (0.2754 LYP + 0.2309 VWN1RPA + 0.4364 OS-MP2)
 SCF time:  CPU 201228.26 s  wall 25323.37 s
 SCF   energy in the final basis set = -39.65378505
 Total energy in the final basis set = -39.65378505
 Entering Scaled Opposite Spin MP2
 NBasAux in rimp2.F =          408

 OS-MP2 job begins now...

 SOS scaling factor =  0.4
 Form (P|Q)**(-1/2)...

 Q-Chem fatal error occurred in module libmdc/qalloc.C, line 49:

 Illegal memory length in mega_alloc


 Please submit a crash report at q-chem.com/reporter 
 
 
 
User input: 2 of 7 
 
Q-Chem Developer Version!
                  Welcome to Q-Chem
     A Quantum Leap Into The Future Of Chemistry


 Q-Chem 5.1, Q-Chem, Inc., Pleasanton, CA (2018)

 Yihan Shao,  Zhengting Gan,  E. Epifanovsky,  A. T. B. Gilbert,  M. Wormit,  
 J. Kussmann,  A. W. Lange,  A. Behn,  Jia Deng,  Xintian Feng,  D. Ghosh,  
 M. Goldey,  P. R. Horn,  L. D. Jacobson,  I. Kaliman,  T. Kus,  A. Landau,  
 Jie Liu,  E. I. Proynov,  R. M. Richard,  R. P. Steele,  E. J. Sundstrom,  
 H. L. Woodcock III,  P. M. Zimmerman,  D. Zuev,  B. Albrecht,  E. Alguire,  
 S. A. Baeppler,  D. Barton,  Z. Benda,  Y. A. Bernard,  E. J. Berquist,  
 K. B. Bravaya,  H. Burton,  D. Casanova,  Chun-Min Chang,  Yunqing Chen,  
 A. Chien,  K. D. Closser,  M. P. Coons,  S. Coriani,  S. Dasgupta,  
 A. L. Dempwolff,  M. Diedenhofen,  Hainam Do,  R. G. Edgar,  Po-Tung Fang,  
 S. Faraji,  S. Fatehi,  Qingguo Feng,  K. D. Fenk,  J. Fosso-Tande,  
 Qinghui Ge,  A. Ghysels,  G. Gidofalvi,  J. Gomes,  J. Gonthier,  A. Gunina,  
 D. Hait,  M. W. D. Hanson-Heine,  P. H. P. Harbach,  A. W. Hauser,  
 J. E. Herr,  E. G. Hohenstein,  Z. C. Holden,  Kerwin Hui,  B. C. Huynh,  
 T.-C. Jagau,  Hyunjun Ji,  B. Kaduk,  K. Khistyaev,  Jaehoon Kim,  
 P. Klunzinger,  K. Koh,  D. Kosenkov,  L. Koulias,  T. Kowalczyk,  
 C. M. Krauter,  A. Kunitsa,  Ka Un Lao,  A. Laurent,  K. V. Lawler,  
 Joonho Lee,  D. Lefrancois,  S. Lehtola,  D. S. Levine,  Yi-Pei Li,  
 You-Sheng Lin,  Fenglai Liu,  E. Livshits,  A. Luenser,  P. Manohar,  
 E. Mansoor,  S. F. Manzer,  Shan-Ping Mao,  Yuezhi Mao,  N. Mardirossian,  
 A. V. Marenich,  T. Markovich,  L. A. Martinez-Martinez,  S. A. Maurer,  
 N. J. Mayhall,  S. C. McKenzie,  J.-M. Mewes,  A. F. Morrison,  
 J. W. Mullinax,  K. Nanda,  T. S. Nguyen-Beck,  R. Olivares-Amaya,  
 J. A. Parkhill,  T. M. Perrine,  F. Plasser,  P. Pokhilko,  S. Prager,  
 A. Prociuk,  E. Ramos,  D. R. Rehn,  F. Rob,  M. Schneider,  N. Sergueev,  
 S. M. Sharada,  S. Sharma,  D. W. Small,  T. Stauch,  T. Stein,  
 Yu-Chuan Su,  A. J. W. Thom,  A. Tkatchenko,  T. Tsuchimochi,  N. M. Tubman,  
 L. Vogt,  M. L. Vidal,  O. Vydrov,  M. A. Watson,  J. Wenzel,  
 M. de Wergifosse,  T. A. Wesolowski,  A. White,  J. Witte,  A. Yamada,  
 Jun Yang,  K. Yao,  S. Yeganeh,  S. R. Yost,  Zhi-Qiang You,  A. Zech,  
 Igor Ying Zhang,  Xing Zhang,  Yan Zhao,  Ying Zhu,  B. R. Brooks,  
 G. K. L. Chan,  C. J. Cramer,  M. S. Gordon,  W. J. Hehre,  A. Klamt,  
 M. W. Schmidt,  C. D. Sherrill,  D. G. Truhlar,  A. Aspuru-Guzik,  R. Baer,  
 A. T. Bell,  N. A. Besley,  Jeng-Da Chai,  A. E. DePrince, III,  
 R. A. DiStasio Jr.,  A. Dreuw,  B. D. Dunietz,  T. R. Furlani,  
 Chao-Ping Hsu,  Yousung Jung,  Jing Kong,  D. S. Lambrecht,  WanZhen Liang,  
 C. Ochsenfeld,  V. A. Rassolov,  L. V. Slipchenko,  J. E. Subotnik,  
 T. Van Voorhis,  J. M. Herbert,  A. I. Krylov,  P. M. W. Gill,  M. Head-Gordon

 Contributors to earlier versions of Q-Chem not listed above: 
 R. D. Adamson,  B. Austin,  J. Baker,  G. J. O. Beran,  K. Brandhorst,  
 S. T. Brown,  E. F. C. Byrd,  A. K. Chakraborty,  C.-L. Cheng,  
 Siu Hung Chien,  D. M. Chipman,  D. L. Crittenden,  H. Dachsel,  
 R. J. Doerksen,  A. D. Dutoi,  L. Fusti-Molnar,  W. A. Goddard III,  
 A. Golubeva-Zadorozhnaya,  S. R. Gwaltney,  G. Hawkins,  A. Heyden,  
 S. Hirata,  G. Kedziora,  F. J. Keil,  C. Kelley,  Jihan Kim,  R. A. King,  
 R. Z. Khaliullin,  P. P. Korambath,  W. Kurlancheek,  A. M. Lee,  M. S. Lee,  
 S. V. Levchenko,  Ching Yeh Lin,  D. Liotard,  R. C. Lochan,  I. Lotan,  
 P. E. Maslen,  N. Nair,  D. P. O'Neill,  D. Neuhauser,  E. Neuscamman,  
 C. M. Oana,  R. Olson,  B. Peters,  R. Peverati,  P. A. Pieniazek,  
 Y. M. Rhee,  J. Ritchie,  M. A. Rohrdanz,  E. Rosta,  N. J. Russ,  
 H. F. Schaefer III,  N. E. Schultz,  N. Shenvi,  A. C. Simmonett,  A. Sodt,  
 D. Stuck,  K. S. Thanthiriwatte,  V. Vanovschi,  Tao Wang,  A. Warshel,  
 C. F. Williams,  Q. Wu,  X. Xu,  W. Zhang

 Please cite Q-Chem as follows:
 Y. Shao et al., Mol. Phys. 113, 184-215 (2015)
 DOI: 10.1080/00268976.2014.952696

 Q-Chem 5.1.1 for Intel X86 EM64T Linux

 Parts of Q-Chem use Armadillo 8.300.2 (Tropical Shenanigans).
 http://arma.sourceforge.net/

 Q-Chem begins on Fri Oct 23 10:24:54 2020  

Host: n0049.mhg0
0

     Scratch files written to /local/scratch/users/yhljason/CH3_XYGJOS_aug-cc-pcV5Z.inp20201023032241//
The previous job contains 0 fragments, simply inherited here
Input Ideriv = 1
Curr. Ideriv = -1
Max.  Ideriv = 1

Checking the input file for inconsistencies... 	...done.

--------------------------------------------------------------
User input:
--------------------------------------------------------------
$molecule
read
$end

$rem

jobtype sp
exchange XYGJOS
xc_grid 000099000590
basis aug-cc-pcV5Z
aux_basis rimp2-aug-cc-pVQZ
max_scf_cycles 200
thresh 14
scf_convergence 8
mem_total 128000
cc_memory 96000
cc_backend xm
mem_static 1500
symmetry false
sym_ignore true
scf_guess read
unrestricted false
scf_algorithm gdm
n_frozen_core 1000
$end

$multipole_field
XX 0.0001
$end


--------------------------------------------------------------
 ----------------------------------------------------------------
             Standard Nuclear Orientation (Angstroms)
    I     Atom           X                Y                Z
 ----------------------------------------------------------------
    1      C       0.0000000000     0.0000000000     0.0000000000
    2      H       1.0790000000     0.0000000000     0.0000000000
    3      H      -0.5395000000    -0.9344000000     0.0000000000
    4      H      -0.5395000000     0.9344000000     0.0000000000
 ----------------------------------------------------------------
 Nuclear Repulsion Energy =     9.6774633775 hartrees
 There are        5 alpha and        4 beta electrons
 Requested basis set is aug-cc-pCV5Z
 There are 101 shells and 421 basis functions

 Total QAlloc Memory Limit 128000 MB
 Mega-Array Size      1467 MB
 MEM_STATIC part      1500 MB

                       Distance Matrix (Angstroms)
             C (  1)   H (  2)   H (  3)
   H (  2)  1.079000
   H (  3)  1.078964  1.868862
   H (  4)  1.078964  1.868862  1.868800
 
 Applying Cartesian multipole field
    Component          Value
    ---------          -----
     (2,0,0)        1.00000E-04
 Nucleus-field energy     =     0.0006236370 hartrees
 Requested basis set is rimp2-aug-cc-pVQZ
 There are 96 shells and 408 basis functions
 A cutoff of  1.0D-14 yielded   5151 shell pairs
 There are     89891 function pairs (    162981 Cartesian)
 
 -------------------------------------------------------
 OpenMP Integral Computing Module                       
 Release: version 1.0, May 2013, Q-Chem Inc. Pittsburgh 
 -------------------------------------------------------
 Integral Job Info:
 Integral job number is                      11
 Integral operator is                         1
 short-range coefficients                     0
 long-range coefficients              100000000
 Omega coefficients                           0
 if combine SR and LR in K                    0
 Integral screening is                        0
 Integral computing path is                   2
 max size of driver memory is           6400000
 size of driver memory is               5498286
 size of scratch memory is             29551430
 max col of scratch BK array             194481
 max len of scratch array in speh3         5572
 max len of scratch index in speh4           72
 max int batch size is                      520
 min int batch size is                       52
 fixed nKL is                                30
 max L of basis functions is                  5
 order of int derivative is                   0
 number of shells is                        101
 number of basis is                         566
 number of cartesian basis is               566
 number of contracted shell pairs          5151
 number of primitive shell pairs           8424
 maxK2 (contraction) of shell pair          100
 max number of K2 of shell pair               1
 max number of CS2 of shell pair            588
 max number of PS2 of shell pair            588
 mem total for path MDJ                 1097632
 -------------------------------------------------------
 Smallest overlap matrix eigenvalue = 4.80E-06
 Guess MOs from SCF MO coefficient file
 Reading MOs from coefficient file
 Reading MOs from coefficient file
 A restricted hybrid HF-DFT SCF calculation will be
 performed using Geometric Direct Minimization
 Exchange:     0.2000 Hartree-Fock + 0.0800 Slater + 0.7200 B88
 Correlation:  0.1900 VWN1RPA + 0.8100 LYP
 Using Euler-Maclaurin-Lebedev (99,590) quadrature formula
 SCF converges when RMS gradient is below 1.0E-08
Using Q-Chem read-in guess as SCF_GUESS READ specified.

 using 8 threads for integral computing
 -------------------------------------------------------
 OpenMP Integral computing Module                
 Release: version 2.0, May 2017, Q-Chem Inc. Pleasanton 
 -------------------------------------------------------
 LTot/LBra/LKet=          20          10          10
 LTot/LBra/LKet=          20          10          10
 LTot/LBra/LKet=          19           9          10
 LTot/LBra/LKet=          19           9          10

 Q-Chem warning:

 in GenH1, ket side, handled with new code

 LTot/LBra/LKet=          19           9          10
 LTot/LBra/LKet=          19           9          10
 LTot/LBra/LKet=          19           9          10
 LTot/LBra/LKet=          20          10          10

 Q-Chem warning:

 in GenH1, ket side, handled with new code


 Q-Chem warning:

 in GenH1, ket side, handled with new code


 Q-Chem warning:

 in GenH1, ket side, handled with new code


 Q-Chem warning:

 in GenH1, ket side, handled with new code


 Q-Chem warning:

 in GenH1, ket side, handled with new code


 Q-Chem warning:

 in GenH1, ket side, handled with new code


 Q-Chem warning:

 in GenH1, ket side, handled with new code

 LTot/LBra/LBra=          20          10          10

 Q-Chem warning:

 in GenH1, bra side, handled with new code

TIMEINFO->: J/JK contribution 1404.07 sec.
 -------------------------------------------------------
 OpenMP BLAS3 based DFT computing Module                
 Release: version 1.0, May 2013, Q-Chem Inc. Pittsburgh 
 -------------------------------------------------------
 ---------------------------------------
  Cycle       Energy        RMS Gradient
 ---------------------------------------
    1     -39.8623177903      3.82E-04 Normal BFGS step
TIMEINFO->: J/JK contribution 1402.71 sec.
    2     -39.8623180617      4.62E-04 Normal BFGS step
TIMEINFO->: J/JK contribution 1364.91 sec.
    3     -39.8623182420      8.54E-05 Normal BFGS step
TIMEINFO->: J/JK contribution 1370.99 sec.
    4     -39.8623182589      2.14E-05 Normal BFGS step
TIMEINFO->: J/JK contribution 1361.03 sec.
    5     -39.8623182597      2.73E-06 Normal BFGS step
TIMEINFO->: J/JK contribution 1333.52 sec.
    6     -39.8623182597      8.31E-07 Normal BFGS step
TIMEINFO->: J/JK contribution 1315.55 sec.
    7     -39.8623182597      1.32E-07 Normal BFGS step
TIMEINFO->: J/JK contribution 1269.58 sec.
   GDM::WARNING energy changes are now smaller than effective accuracy.
   GDM::        calculation will continue, but THRESH should be increased
   GDM::        or SCF_CONVERGENCE decreased.
   GDM::        effective_thresh =   5.000000000000000E-011
    8     -39.8623182597      2.76E-08 Normal BFGS step
TIMEINFO->: J/JK contribution 1220.49 sec.
   GDM::WARNING energy changes are now smaller than effective accuracy.
   GDM::        calculation will continue, but THRESH should be increased
   GDM::        or SCF_CONVERGENCE decreased.
   GDM::        effective_thresh =   5.000000000000000E-011
    9     -39.8623182597      5.87E-09 Convergence criterion met
 ---------------------------------------
 B3LYP orbitals are now ready for the XYGJ-OS calculation.
 XYGJ-OS energy = Exch (0.7731 HF  + 0.2269 Slater) + 
                  Corr (0.2754 LYP + 0.2309 VWN1RPA + 0.4364 OS-MP2)
 SCF time:  CPU 12504.26 s  wall 1570.06 s
 SCF   energy in the final basis set = -39.65431913
 Total energy in the final basis set = -39.65431913
 Entering Scaled Opposite Spin MP2
 NBasAux in rimp2.F =          408

 OS-MP2 job begins now...

 SOS scaling factor =  0.4
 Form (P|Q)**(-1/2)...

 Q-Chem fatal error occurred in module libmdc/qalloc.C, line 49:

 Illegal memory length in mega_alloc


 Please submit a crash report at q-chem.com/reporter 
 
 
 
User input: 3 of 7 
 
Q-Chem Developer Version!
                  Welcome to Q-Chem
     A Quantum Leap Into The Future Of Chemistry


 Q-Chem 5.1, Q-Chem, Inc., Pleasanton, CA (2018)

 Yihan Shao,  Zhengting Gan,  E. Epifanovsky,  A. T. B. Gilbert,  M. Wormit,  
 J. Kussmann,  A. W. Lange,  A. Behn,  Jia Deng,  Xintian Feng,  D. Ghosh,  
 M. Goldey,  P. R. Horn,  L. D. Jacobson,  I. Kaliman,  T. Kus,  A. Landau,  
 Jie Liu,  E. I. Proynov,  R. M. Richard,  R. P. Steele,  E. J. Sundstrom,  
 H. L. Woodcock III,  P. M. Zimmerman,  D. Zuev,  B. Albrecht,  E. Alguire,  
 S. A. Baeppler,  D. Barton,  Z. Benda,  Y. A. Bernard,  E. J. Berquist,  
 K. B. Bravaya,  H. Burton,  D. Casanova,  Chun-Min Chang,  Yunqing Chen,  
 A. Chien,  K. D. Closser,  M. P. Coons,  S. Coriani,  S. Dasgupta,  
 A. L. Dempwolff,  M. Diedenhofen,  Hainam Do,  R. G. Edgar,  Po-Tung Fang,  
 S. Faraji,  S. Fatehi,  Qingguo Feng,  K. D. Fenk,  J. Fosso-Tande,  
 Qinghui Ge,  A. Ghysels,  G. Gidofalvi,  J. Gomes,  J. Gonthier,  A. Gunina,  
 D. Hait,  M. W. D. Hanson-Heine,  P. H. P. Harbach,  A. W. Hauser,  
 J. E. Herr,  E. G. Hohenstein,  Z. C. Holden,  Kerwin Hui,  B. C. Huynh,  
 T.-C. Jagau,  Hyunjun Ji,  B. Kaduk,  K. Khistyaev,  Jaehoon Kim,  
 P. Klunzinger,  K. Koh,  D. Kosenkov,  L. Koulias,  T. Kowalczyk,  
 C. M. Krauter,  A. Kunitsa,  Ka Un Lao,  A. Laurent,  K. V. Lawler,  
 Joonho Lee,  D. Lefrancois,  S. Lehtola,  D. S. Levine,  Yi-Pei Li,  
 You-Sheng Lin,  Fenglai Liu,  E. Livshits,  A. Luenser,  P. Manohar,  
 E. Mansoor,  S. F. Manzer,  Shan-Ping Mao,  Yuezhi Mao,  N. Mardirossian,  
 A. V. Marenich,  T. Markovich,  L. A. Martinez-Martinez,  S. A. Maurer,  
 N. J. Mayhall,  S. C. McKenzie,  J.-M. Mewes,  A. F. Morrison,  
 J. W. Mullinax,  K. Nanda,  T. S. Nguyen-Beck,  R. Olivares-Amaya,  
 J. A. Parkhill,  T. M. Perrine,  F. Plasser,  P. Pokhilko,  S. Prager,  
 A. Prociuk,  E. Ramos,  D. R. Rehn,  F. Rob,  M. Schneider,  N. Sergueev,  
 S. M. Sharada,  S. Sharma,  D. W. Small,  T. Stauch,  T. Stein,  
 Yu-Chuan Su,  A. J. W. Thom,  A. Tkatchenko,  T. Tsuchimochi,  N. M. Tubman,  
 L. Vogt,  M. L. Vidal,  O. Vydrov,  M. A. Watson,  J. Wenzel,  
 M. de Wergifosse,  T. A. Wesolowski,  A. White,  J. Witte,  A. Yamada,  
 Jun Yang,  K. Yao,  S. Yeganeh,  S. R. Yost,  Zhi-Qiang You,  A. Zech,  
 Igor Ying Zhang,  Xing Zhang,  Yan Zhao,  Ying Zhu,  B. R. Brooks,  
 G. K. L. Chan,  C. J. Cramer,  M. S. Gordon,  W. J. Hehre,  A. Klamt,  
 M. W. Schmidt,  C. D. Sherrill,  D. G. Truhlar,  A. Aspuru-Guzik,  R. Baer,  
 A. T. Bell,  N. A. Besley,  Jeng-Da Chai,  A. E. DePrince, III,  
 R. A. DiStasio Jr.,  A. Dreuw,  B. D. Dunietz,  T. R. Furlani,  
 Chao-Ping Hsu,  Yousung Jung,  Jing Kong,  D. S. Lambrecht,  WanZhen Liang,  
 C. Ochsenfeld,  V. A. Rassolov,  L. V. Slipchenko,  J. E. Subotnik,  
 T. Van Voorhis,  J. M. Herbert,  A. I. Krylov,  P. M. W. Gill,  M. Head-Gordon

 Contributors to earlier versions of Q-Chem not listed above: 
 R. D. Adamson,  B. Austin,  J. Baker,  G. J. O. Beran,  K. Brandhorst,  
 S. T. Brown,  E. F. C. Byrd,  A. K. Chakraborty,  C.-L. Cheng,  
 Siu Hung Chien,  D. M. Chipman,  D. L. Crittenden,  H. Dachsel,  
 R. J. Doerksen,  A. D. Dutoi,  L. Fusti-Molnar,  W. A. Goddard III,  
 A. Golubeva-Zadorozhnaya,  S. R. Gwaltney,  G. Hawkins,  A. Heyden,  
 S. Hirata,  G. Kedziora,  F. J. Keil,  C. Kelley,  Jihan Kim,  R. A. King,  
 R. Z. Khaliullin,  P. P. Korambath,  W. Kurlancheek,  A. M. Lee,  M. S. Lee,  
 S. V. Levchenko,  Ching Yeh Lin,  D. Liotard,  R. C. Lochan,  I. Lotan,  
 P. E. Maslen,  N. Nair,  D. P. O'Neill,  D. Neuhauser,  E. Neuscamman,  
 C. M. Oana,  R. Olson,  B. Peters,  R. Peverati,  P. A. Pieniazek,  
 Y. M. Rhee,  J. Ritchie,  M. A. Rohrdanz,  E. Rosta,  N. J. Russ,  
 H. F. Schaefer III,  N. E. Schultz,  N. Shenvi,  A. C. Simmonett,  A. Sodt,  
 D. Stuck,  K. S. Thanthiriwatte,  V. Vanovschi,  Tao Wang,  A. Warshel,  
 C. F. Williams,  Q. Wu,  X. Xu,  W. Zhang

 Please cite Q-Chem as follows:
 Y. Shao et al., Mol. Phys. 113, 184-215 (2015)
 DOI: 10.1080/00268976.2014.952696

 Q-Chem 5.1.1 for Intel X86 EM64T Linux

 Parts of Q-Chem use Armadillo 8.300.2 (Tropical Shenanigans).
 http://arma.sourceforge.net/

 Q-Chem begins on Fri Oct 23 10:51:08 2020  

Host: n0049.mhg0
0

     Scratch files written to /local/scratch/users/yhljason/CH3_XYGJOS_aug-cc-pcV5Z.inp20201023032241//
The previous job contains 0 fragments, simply inherited here
Input Ideriv = 1
Curr. Ideriv = -1
Max.  Ideriv = 1

Checking the input file for inconsistencies... 	...done.

--------------------------------------------------------------
User input:
--------------------------------------------------------------
$molecule
read
$end

$rem

jobtype sp
exchange XYGJOS
xc_grid 000099000590
basis aug-cc-pcV5Z
aux_basis rimp2-aug-cc-pVQZ
max_scf_cycles 200
thresh 14
scf_convergence 8
mem_total 128000
cc_memory 96000
cc_backend xm
mem_static 1500
symmetry false
sym_ignore true
scf_guess read
unrestricted false
scf_algorithm gdm
n_frozen_core 1000
$end

$multipole_field
XX -0.0001
$end


--------------------------------------------------------------
 ----------------------------------------------------------------
             Standard Nuclear Orientation (Angstroms)
    I     Atom           X                Y                Z
 ----------------------------------------------------------------
    1      C       0.0000000000     0.0000000000     0.0000000000
    2      H       1.0790000000     0.0000000000     0.0000000000
    3      H      -0.5395000000    -0.9344000000     0.0000000000
    4      H      -0.5395000000     0.9344000000     0.0000000000
 ----------------------------------------------------------------
 Nuclear Repulsion Energy =     9.6774633775 hartrees
 There are        5 alpha and        4 beta electrons
 Requested basis set is aug-cc-pCV5Z
 There are 101 shells and 421 basis functions

 Total QAlloc Memory Limit 128000 MB
 Mega-Array Size      1467 MB
 MEM_STATIC part      1500 MB

                       Distance Matrix (Angstroms)
             C (  1)   H (  2)   H (  3)
   H (  2)  1.079000
   H (  3)  1.078964  1.868862
   H (  4)  1.078964  1.868862  1.868800
 
 Applying Cartesian multipole field
    Component          Value
    ---------          -----
     (2,0,0)       -1.00000E-04
 Nucleus-field energy     =    -0.0006236370 hartrees
 Requested basis set is rimp2-aug-cc-pVQZ
 There are 96 shells and 408 basis functions
 A cutoff of  1.0D-14 yielded   5151 shell pairs
 There are     89891 function pairs (    162981 Cartesian)
 
 -------------------------------------------------------
 OpenMP Integral Computing Module                       
 Release: version 1.0, May 2013, Q-Chem Inc. Pittsburgh 
 -------------------------------------------------------
 Integral Job Info:
 Integral job number is                      11
 Integral operator is                         1
 short-range coefficients                     0
 long-range coefficients              100000000
 Omega coefficients                           0
 if combine SR and LR in K                    0
 Integral screening is                        0
 Integral computing path is                   2
 max size of driver memory is           6400000
 size of driver memory is               5498286
 size of scratch memory is             29551430
 max col of scratch BK array             194481
 max len of scratch array in speh3         5572
 max len of scratch index in speh4           72
 max int batch size is                      520
 min int batch size is                       52
 fixed nKL is                                30
 max L of basis functions is                  5
 order of int derivative is                   0
 number of shells is                        101
 number of basis is                         566
 number of cartesian basis is               566
 number of contracted shell pairs          5151
 number of primitive shell pairs           8424
 maxK2 (contraction) of shell pair          100
 max number of K2 of shell pair               1
 max number of CS2 of shell pair            588
 max number of PS2 of shell pair            588
 mem total for path MDJ                 1097632
 -------------------------------------------------------
 Smallest overlap matrix eigenvalue = 4.80E-06
 Guess MOs from SCF MO coefficient file
 Reading MOs from coefficient file
 Reading MOs from coefficient file
 A restricted hybrid HF-DFT SCF calculation will be
 performed using Geometric Direct Minimization
 Exchange:     0.2000 Hartree-Fock + 0.0800 Slater + 0.7200 B88
 Correlation:  0.1900 VWN1RPA + 0.8100 LYP
 Using Euler-Maclaurin-Lebedev (99,590) quadrature formula
 SCF converges when RMS gradient is below 1.0E-08
Using Q-Chem read-in guess as SCF_GUESS READ specified.

 using 8 threads for integral computing
 -------------------------------------------------------
 OpenMP Integral computing Module                
 Release: version 2.0, May 2017, Q-Chem Inc. Pleasanton 
 -------------------------------------------------------
 LTot/LBra/LKet=          20          10          10
 LTot/LBra/LKet=          19           9          10
 LTot/LBra/LKet=          20          10          10
 LTot/LBra/LKet=          19           9          10
 LTot/LBra/LKet=          19           9          10
 LTot/LBra/LKet=          20          10          10

 Q-Chem warning:

 in GenH1, ket side, handled with new code


 Q-Chem warning:

 in GenH1, ket side, handled with new code


 Q-Chem warning:

 in GenH1, ket side, handled with new code


 Q-Chem warning:

 in GenH1, ket side, handled with new code

 LTot/LBra/LKet=          19           9          10
 LTot/LBra/LKet=          19           9          10

 Q-Chem warning:

 in GenH1, ket side, handled with new code


 Q-Chem warning:

 in GenH1, ket side, handled with new code


 Q-Chem warning:

 in GenH1, ket side, handled with new code


 Q-Chem warning:

 in GenH1, ket side, handled with new code

 LTot/LBra/LBra=          20          10          10

 Q-Chem warning:

 in GenH1, bra side, handled with new code

TIMEINFO->: J/JK contribution 1401.40 sec.
 -------------------------------------------------------
 OpenMP BLAS3 based DFT computing Module                
 Release: version 1.0, May 2013, Q-Chem Inc. Pittsburgh 
 -------------------------------------------------------
 ---------------------------------------
  Cycle       Energy        RMS Gradient
 ---------------------------------------
    1     -39.8612277044      7.88E-04 Normal BFGS step
TIMEINFO->: J/JK contribution 1399.11 sec.
    2     -39.8612287991      9.09E-04 Normal BFGS step
TIMEINFO->: J/JK contribution 1372.16 sec.
    3     -39.8612295110      1.68E-04 Normal BFGS step
TIMEINFO->: J/JK contribution 1374.59 sec.
    4     -39.8612295787      4.25E-05 Normal BFGS step
TIMEINFO->: J/JK contribution 1368.59 sec.
    5     -39.8612295819      5.25E-06 Normal BFGS step
TIMEINFO->: J/JK contribution 1343.68 sec.
    6     -39.8612295819      1.59E-06 Normal BFGS step
TIMEINFO->: J/JK contribution 1321.28 sec.
    7     -39.8612295819      2.69E-07 Normal BFGS step
TIMEINFO->: J/JK contribution 1279.02 sec.
    8     -39.8612295819      5.34E-08 Normal BFGS step
TIMEINFO->: J/JK contribution 1241.72 sec.
    9     -39.8612295819      1.18E-08 Normal BFGS step
TIMEINFO->: J/JK contribution 1172.09 sec.
   10     -39.8612295819      3.46E-09 Convergence criterion met
 ---------------------------------------
 B3LYP orbitals are now ready for the XYGJ-OS calculation.
 XYGJ-OS energy = Exch (0.7731 HF  + 0.2269 Slater) + 
                  Corr (0.2754 LYP + 0.2309 VWN1RPA + 0.4364 OS-MP2)
 SCF time:  CPU 13781.97 s  wall 1730.57 s
 SCF   energy in the final basis set = -39.65325178
 Total energy in the final basis set = -39.65325178
 Entering Scaled Opposite Spin MP2
 NBasAux in rimp2.F =          408

 OS-MP2 job begins now...

 SOS scaling factor =  0.4
 Form (P|Q)**(-1/2)...

 Q-Chem fatal error occurred in module libmdc/qalloc.C, line 49:

 Illegal memory length in mega_alloc


 Please submit a crash report at q-chem.com/reporter 
 
 
 
User input: 4 of 7 
 
Q-Chem Developer Version!
                  Welcome to Q-Chem
     A Quantum Leap Into The Future Of Chemistry


 Q-Chem 5.1, Q-Chem, Inc., Pleasanton, CA (2018)

 Yihan Shao,  Zhengting Gan,  E. Epifanovsky,  A. T. B. Gilbert,  M. Wormit,  
 J. Kussmann,  A. W. Lange,  A. Behn,  Jia Deng,  Xintian Feng,  D. Ghosh,  
 M. Goldey,  P. R. Horn,  L. D. Jacobson,  I. Kaliman,  T. Kus,  A. Landau,  
 Jie Liu,  E. I. Proynov,  R. M. Richard,  R. P. Steele,  E. J. Sundstrom,  
 H. L. Woodcock III,  P. M. Zimmerman,  D. Zuev,  B. Albrecht,  E. Alguire,  
 S. A. Baeppler,  D. Barton,  Z. Benda,  Y. A. Bernard,  E. J. Berquist,  
 K. B. Bravaya,  H. Burton,  D. Casanova,  Chun-Min Chang,  Yunqing Chen,  
 A. Chien,  K. D. Closser,  M. P. Coons,  S. Coriani,  S. Dasgupta,  
 A. L. Dempwolff,  M. Diedenhofen,  Hainam Do,  R. G. Edgar,  Po-Tung Fang,  
 S. Faraji,  S. Fatehi,  Qingguo Feng,  K. D. Fenk,  J. Fosso-Tande,  
 Qinghui Ge,  A. Ghysels,  G. Gidofalvi,  J. Gomes,  J. Gonthier,  A. Gunina,  
 D. Hait,  M. W. D. Hanson-Heine,  P. H. P. Harbach,  A. W. Hauser,  
 J. E. Herr,  E. G. Hohenstein,  Z. C. Holden,  Kerwin Hui,  B. C. Huynh,  
 T.-C. Jagau,  Hyunjun Ji,  B. Kaduk,  K. Khistyaev,  Jaehoon Kim,  
 P. Klunzinger,  K. Koh,  D. Kosenkov,  L. Koulias,  T. Kowalczyk,  
 C. M. Krauter,  A. Kunitsa,  Ka Un Lao,  A. Laurent,  K. V. Lawler,  
 Joonho Lee,  D. Lefrancois,  S. Lehtola,  D. S. Levine,  Yi-Pei Li,  
 You-Sheng Lin,  Fenglai Liu,  E. Livshits,  A. Luenser,  P. Manohar,  
 E. Mansoor,  S. F. Manzer,  Shan-Ping Mao,  Yuezhi Mao,  N. Mardirossian,  
 A. V. Marenich,  T. Markovich,  L. A. Martinez-Martinez,  S. A. Maurer,  
 N. J. Mayhall,  S. C. McKenzie,  J.-M. Mewes,  A. F. Morrison,  
 J. W. Mullinax,  K. Nanda,  T. S. Nguyen-Beck,  R. Olivares-Amaya,  
 J. A. Parkhill,  T. M. Perrine,  F. Plasser,  P. Pokhilko,  S. Prager,  
 A. Prociuk,  E. Ramos,  D. R. Rehn,  F. Rob,  M. Schneider,  N. Sergueev,  
 S. M. Sharada,  S. Sharma,  D. W. Small,  T. Stauch,  T. Stein,  
 Yu-Chuan Su,  A. J. W. Thom,  A. Tkatchenko,  T. Tsuchimochi,  N. M. Tubman,  
 L. Vogt,  M. L. Vidal,  O. Vydrov,  M. A. Watson,  J. Wenzel,  
 M. de Wergifosse,  T. A. Wesolowski,  A. White,  J. Witte,  A. Yamada,  
 Jun Yang,  K. Yao,  S. Yeganeh,  S. R. Yost,  Zhi-Qiang You,  A. Zech,  
 Igor Ying Zhang,  Xing Zhang,  Yan Zhao,  Ying Zhu,  B. R. Brooks,  
 G. K. L. Chan,  C. J. Cramer,  M. S. Gordon,  W. J. Hehre,  A. Klamt,  
 M. W. Schmidt,  C. D. Sherrill,  D. G. Truhlar,  A. Aspuru-Guzik,  R. Baer,  
 A. T. Bell,  N. A. Besley,  Jeng-Da Chai,  A. E. DePrince, III,  
 R. A. DiStasio Jr.,  A. Dreuw,  B. D. Dunietz,  T. R. Furlani,  
 Chao-Ping Hsu,  Yousung Jung,  Jing Kong,  D. S. Lambrecht,  WanZhen Liang,  
 C. Ochsenfeld,  V. A. Rassolov,  L. V. Slipchenko,  J. E. Subotnik,  
 T. Van Voorhis,  J. M. Herbert,  A. I. Krylov,  P. M. W. Gill,  M. Head-Gordon

 Contributors to earlier versions of Q-Chem not listed above: 
 R. D. Adamson,  B. Austin,  J. Baker,  G. J. O. Beran,  K. Brandhorst,  
 S. T. Brown,  E. F. C. Byrd,  A. K. Chakraborty,  C.-L. Cheng,  
 Siu Hung Chien,  D. M. Chipman,  D. L. Crittenden,  H. Dachsel,  
 R. J. Doerksen,  A. D. Dutoi,  L. Fusti-Molnar,  W. A. Goddard III,  
 A. Golubeva-Zadorozhnaya,  S. R. Gwaltney,  G. Hawkins,  A. Heyden,  
 S. Hirata,  G. Kedziora,  F. J. Keil,  C. Kelley,  Jihan Kim,  R. A. King,  
 R. Z. Khaliullin,  P. P. Korambath,  W. Kurlancheek,  A. M. Lee,  M. S. Lee,  
 S. V. Levchenko,  Ching Yeh Lin,  D. Liotard,  R. C. Lochan,  I. Lotan,  
 P. E. Maslen,  N. Nair,  D. P. O'Neill,  D. Neuhauser,  E. Neuscamman,  
 C. M. Oana,  R. Olson,  B. Peters,  R. Peverati,  P. A. Pieniazek,  
 Y. M. Rhee,  J. Ritchie,  M. A. Rohrdanz,  E. Rosta,  N. J. Russ,  
 H. F. Schaefer III,  N. E. Schultz,  N. Shenvi,  A. C. Simmonett,  A. Sodt,  
 D. Stuck,  K. S. Thanthiriwatte,  V. Vanovschi,  Tao Wang,  A. Warshel,  
 C. F. Williams,  Q. Wu,  X. Xu,  W. Zhang

 Please cite Q-Chem as follows:
 Y. Shao et al., Mol. Phys. 113, 184-215 (2015)
 DOI: 10.1080/00268976.2014.952696

 Q-Chem 5.1.1 for Intel X86 EM64T Linux

 Parts of Q-Chem use Armadillo 8.300.2 (Tropical Shenanigans).
 http://arma.sourceforge.net/

 Q-Chem begins on Fri Oct 23 11:20:04 2020  

Host: n0049.mhg0
0

     Scratch files written to /local/scratch/users/yhljason/CH3_XYGJOS_aug-cc-pcV5Z.inp20201023032241//
The previous job contains 0 fragments, simply inherited here
Input Ideriv = 1
Curr. Ideriv = -1
Max.  Ideriv = 1

Checking the input file for inconsistencies... 	...done.

--------------------------------------------------------------
User input:
--------------------------------------------------------------
$molecule
read
$end

$rem

jobtype sp
exchange XYGJOS
xc_grid 000099000590
basis aug-cc-pcV5Z
aux_basis rimp2-aug-cc-pVQZ
max_scf_cycles 200
thresh 14
scf_convergence 8
mem_total 128000
cc_memory 96000
cc_backend xm
mem_static 1500
symmetry false
sym_ignore true
scf_guess read
unrestricted false
scf_algorithm gdm
n_frozen_core 1000
$end

$multipole_field
YY 0.0001
$end


--------------------------------------------------------------
 ----------------------------------------------------------------
             Standard Nuclear Orientation (Angstroms)
    I     Atom           X                Y                Z
 ----------------------------------------------------------------
    1      C       0.0000000000     0.0000000000     0.0000000000
    2      H       1.0790000000     0.0000000000     0.0000000000
    3      H      -0.5395000000    -0.9344000000     0.0000000000
    4      H      -0.5395000000     0.9344000000     0.0000000000
 ----------------------------------------------------------------
 Nuclear Repulsion Energy =     9.6774633775 hartrees
 There are        5 alpha and        4 beta electrons
 Requested basis set is aug-cc-pCV5Z
 There are 101 shells and 421 basis functions

 Total QAlloc Memory Limit 128000 MB
 Mega-Array Size      1467 MB
 MEM_STATIC part      1500 MB

                       Distance Matrix (Angstroms)
             C (  1)   H (  2)   H (  3)
   H (  2)  1.079000
   H (  3)  1.078964  1.868862
   H (  4)  1.078964  1.868862  1.868800
 
 Applying Cartesian multipole field
    Component          Value
    ---------          -----
     (0,2,0)        1.00000E-04
 Nucleus-field energy     =     0.0006235817 hartrees
 Requested basis set is rimp2-aug-cc-pVQZ
 There are 96 shells and 408 basis functions
 A cutoff of  1.0D-14 yielded   5151 shell pairs
 There are     89891 function pairs (    162981 Cartesian)
 
 -------------------------------------------------------
 OpenMP Integral Computing Module                       
 Release: version 1.0, May 2013, Q-Chem Inc. Pittsburgh 
 -------------------------------------------------------
 Integral Job Info:
 Integral job number is                      11
 Integral operator is                         1
 short-range coefficients                     0
 long-range coefficients              100000000
 Omega coefficients                           0
 if combine SR and LR in K                    0
 Integral screening is                        0
 Integral computing path is                   2
 max size of driver memory is           6400000
 size of driver memory is               5498286
 size of scratch memory is             29551430
 max col of scratch BK array             194481
 max len of scratch array in speh3         5572
 max len of scratch index in speh4           72
 max int batch size is                      520
 min int batch size is                       52
 fixed nKL is                                30
 max L of basis functions is                  5
 order of int derivative is                   0
 number of shells is                        101
 number of basis is                         566
 number of cartesian basis is               566
 number of contracted shell pairs          5151
 number of primitive shell pairs           8424
 maxK2 (contraction) of shell pair          100
 max number of K2 of shell pair               1
 max number of CS2 of shell pair            588
 max number of PS2 of shell pair            588
 mem total for path MDJ                 1097632
 -------------------------------------------------------
 Smallest overlap matrix eigenvalue = 4.80E-06
 Guess MOs from SCF MO coefficient file
 Reading MOs from coefficient file
 Reading MOs from coefficient file
 A restricted hybrid HF-DFT SCF calculation will be
 performed using Geometric Direct Minimization
 Exchange:     0.2000 Hartree-Fock + 0.0800 Slater + 0.7200 B88
 Correlation:  0.1900 VWN1RPA + 0.8100 LYP
 Using Euler-Maclaurin-Lebedev (99,590) quadrature formula
 SCF converges when RMS gradient is below 1.0E-08
Using Q-Chem read-in guess as SCF_GUESS READ specified.

 using 8 threads for integral computing
 -------------------------------------------------------
 OpenMP Integral computing Module                
 Release: version 2.0, May 2017, Q-Chem Inc. Pleasanton 
 -------------------------------------------------------
 LTot/LBra/LKet=          20          10          10
 LTot/LBra/LKet=          20          10          10

 Q-Chem warning:

 in GenH1, ket side, handled with new code

 LTot/LBra/LKet=          19           9          10
 LTot/LBra/LKet=          19           9          10
 LTot/LBra/LKet=          20          10          10

 Q-Chem warning:

 in GenH1, ket side, handled with new code

 LTot/LBra/LKet=          19           9          10

 Q-Chem warning:

 in GenH1, ket side, handled with new code


 Q-Chem warning:

 in GenH1, ket side, handled with new code

 LTot/LBra/LKet=          19           9          10
 LTot/LBra/LKet=          19           9          10

 Q-Chem warning:

 in GenH1, ket side, handled with new code


 Q-Chem warning:

 in GenH1, ket side, handled with new code


 Q-Chem warning:

 in GenH1, ket side, handled with new code


 Q-Chem warning:

 in GenH1, ket side, handled with new code

 LTot/LBra/LBra=          20          10          10

 Q-Chem warning:

 in GenH1, bra side, handled with new code

TIMEINFO->: J/JK contribution 1394.99 sec.
 -------------------------------------------------------
 OpenMP BLAS3 based DFT computing Module                
 Release: version 1.0, May 2013, Q-Chem Inc. Pittsburgh 
 -------------------------------------------------------
 ---------------------------------------
  Cycle       Energy        RMS Gradient
 ---------------------------------------
    1     -39.8623172981      6.28E-04 Normal BFGS step
TIMEINFO->: J/JK contribution 1394.15 sec.
    2     -39.8623175051      9.21E-04 Normal BFGS step
TIMEINFO->: J/JK contribution 1369.53 sec.
    3     -39.8623182646      6.90E-05 Normal BFGS step
TIMEINFO->: J/JK contribution 1371.65 sec.
    4     -39.8623182722      2.07E-05 Normal BFGS step
TIMEINFO->: J/JK contribution 1357.30 sec.
    5     -39.8623182726      1.75E-06 Normal BFGS step
TIMEINFO->: J/JK contribution 1316.07 sec.
    6     -39.8623182726      3.90E-07 Normal BFGS step
TIMEINFO->: J/JK contribution 1262.84 sec.
    7     -39.8623182726      9.50E-08 Normal BFGS step
TIMEINFO->: J/JK contribution 1230.97 sec.
   GDM::WARNING energy changes are now smaller than effective accuracy.
   GDM::        calculation will continue, but THRESH should be increased
   GDM::        or SCF_CONVERGENCE decreased.
   GDM::        effective_thresh =   5.000000000000000E-011
    8     -39.8623182726      2.96E-08 Normal BFGS step
TIMEINFO->: J/JK contribution 1200.12 sec.
    9     -39.8623182726      6.61E-10 Convergence criterion met
 ---------------------------------------
 B3LYP orbitals are now ready for the XYGJ-OS calculation.
 XYGJ-OS energy = Exch (0.7731 HF  + 0.2269 Slater) + 
                  Corr (0.2754 LYP + 0.2309 VWN1RPA + 0.4364 OS-MP2)
 SCF time:  CPU 12361.01 s  wall 1552.61 s
 SCF   energy in the final basis set = -39.65431914
 Total energy in the final basis set = -39.65431914
 Entering Scaled Opposite Spin MP2
 NBasAux in rimp2.F =          408

 OS-MP2 job begins now...

 SOS scaling factor =  0.4
 Form (P|Q)**(-1/2)...

 Q-Chem fatal error occurred in module libmdc/qalloc.C, line 49:

 Illegal memory length in mega_alloc


 Please submit a crash report at q-chem.com/reporter 
 
 
 
User input: 5 of 7 
 
Q-Chem Developer Version!
                  Welcome to Q-Chem
     A Quantum Leap Into The Future Of Chemistry


 Q-Chem 5.1, Q-Chem, Inc., Pleasanton, CA (2018)

 Yihan Shao,  Zhengting Gan,  E. Epifanovsky,  A. T. B. Gilbert,  M. Wormit,  
 J. Kussmann,  A. W. Lange,  A. Behn,  Jia Deng,  Xintian Feng,  D. Ghosh,  
 M. Goldey,  P. R. Horn,  L. D. Jacobson,  I. Kaliman,  T. Kus,  A. Landau,  
 Jie Liu,  E. I. Proynov,  R. M. Richard,  R. P. Steele,  E. J. Sundstrom,  
 H. L. Woodcock III,  P. M. Zimmerman,  D. Zuev,  B. Albrecht,  E. Alguire,  
 S. A. Baeppler,  D. Barton,  Z. Benda,  Y. A. Bernard,  E. J. Berquist,  
 K. B. Bravaya,  H. Burton,  D. Casanova,  Chun-Min Chang,  Yunqing Chen,  
 A. Chien,  K. D. Closser,  M. P. Coons,  S. Coriani,  S. Dasgupta,  
 A. L. Dempwolff,  M. Diedenhofen,  Hainam Do,  R. G. Edgar,  Po-Tung Fang,  
 S. Faraji,  S. Fatehi,  Qingguo Feng,  K. D. Fenk,  J. Fosso-Tande,  
 Qinghui Ge,  A. Ghysels,  G. Gidofalvi,  J. Gomes,  J. Gonthier,  A. Gunina,  
 D. Hait,  M. W. D. Hanson-Heine,  P. H. P. Harbach,  A. W. Hauser,  
 J. E. Herr,  E. G. Hohenstein,  Z. C. Holden,  Kerwin Hui,  B. C. Huynh,  
 T.-C. Jagau,  Hyunjun Ji,  B. Kaduk,  K. Khistyaev,  Jaehoon Kim,  
 P. Klunzinger,  K. Koh,  D. Kosenkov,  L. Koulias,  T. Kowalczyk,  
 C. M. Krauter,  A. Kunitsa,  Ka Un Lao,  A. Laurent,  K. V. Lawler,  
 Joonho Lee,  D. Lefrancois,  S. Lehtola,  D. S. Levine,  Yi-Pei Li,  
 You-Sheng Lin,  Fenglai Liu,  E. Livshits,  A. Luenser,  P. Manohar,  
 E. Mansoor,  S. F. Manzer,  Shan-Ping Mao,  Yuezhi Mao,  N. Mardirossian,  
 A. V. Marenich,  T. Markovich,  L. A. Martinez-Martinez,  S. A. Maurer,  
 N. J. Mayhall,  S. C. McKenzie,  J.-M. Mewes,  A. F. Morrison,  
 J. W. Mullinax,  K. Nanda,  T. S. Nguyen-Beck,  R. Olivares-Amaya,  
 J. A. Parkhill,  T. M. Perrine,  F. Plasser,  P. Pokhilko,  S. Prager,  
 A. Prociuk,  E. Ramos,  D. R. Rehn,  F. Rob,  M. Schneider,  N. Sergueev,  
 S. M. Sharada,  S. Sharma,  D. W. Small,  T. Stauch,  T. Stein,  
 Yu-Chuan Su,  A. J. W. Thom,  A. Tkatchenko,  T. Tsuchimochi,  N. M. Tubman,  
 L. Vogt,  M. L. Vidal,  O. Vydrov,  M. A. Watson,  J. Wenzel,  
 M. de Wergifosse,  T. A. Wesolowski,  A. White,  J. Witte,  A. Yamada,  
 Jun Yang,  K. Yao,  S. Yeganeh,  S. R. Yost,  Zhi-Qiang You,  A. Zech,  
 Igor Ying Zhang,  Xing Zhang,  Yan Zhao,  Ying Zhu,  B. R. Brooks,  
 G. K. L. Chan,  C. J. Cramer,  M. S. Gordon,  W. J. Hehre,  A. Klamt,  
 M. W. Schmidt,  C. D. Sherrill,  D. G. Truhlar,  A. Aspuru-Guzik,  R. Baer,  
 A. T. Bell,  N. A. Besley,  Jeng-Da Chai,  A. E. DePrince, III,  
 R. A. DiStasio Jr.,  A. Dreuw,  B. D. Dunietz,  T. R. Furlani,  
 Chao-Ping Hsu,  Yousung Jung,  Jing Kong,  D. S. Lambrecht,  WanZhen Liang,  
 C. Ochsenfeld,  V. A. Rassolov,  L. V. Slipchenko,  J. E. Subotnik,  
 T. Van Voorhis,  J. M. Herbert,  A. I. Krylov,  P. M. W. Gill,  M. Head-Gordon

 Contributors to earlier versions of Q-Chem not listed above: 
 R. D. Adamson,  B. Austin,  J. Baker,  G. J. O. Beran,  K. Brandhorst,  
 S. T. Brown,  E. F. C. Byrd,  A. K. Chakraborty,  C.-L. Cheng,  
 Siu Hung Chien,  D. M. Chipman,  D. L. Crittenden,  H. Dachsel,  
 R. J. Doerksen,  A. D. Dutoi,  L. Fusti-Molnar,  W. A. Goddard III,  
 A. Golubeva-Zadorozhnaya,  S. R. Gwaltney,  G. Hawkins,  A. Heyden,  
 S. Hirata,  G. Kedziora,  F. J. Keil,  C. Kelley,  Jihan Kim,  R. A. King,  
 R. Z. Khaliullin,  P. P. Korambath,  W. Kurlancheek,  A. M. Lee,  M. S. Lee,  
 S. V. Levchenko,  Ching Yeh Lin,  D. Liotard,  R. C. Lochan,  I. Lotan,  
 P. E. Maslen,  N. Nair,  D. P. O'Neill,  D. Neuhauser,  E. Neuscamman,  
 C. M. Oana,  R. Olson,  B. Peters,  R. Peverati,  P. A. Pieniazek,  
 Y. M. Rhee,  J. Ritchie,  M. A. Rohrdanz,  E. Rosta,  N. J. Russ,  
 H. F. Schaefer III,  N. E. Schultz,  N. Shenvi,  A. C. Simmonett,  A. Sodt,  
 D. Stuck,  K. S. Thanthiriwatte,  V. Vanovschi,  Tao Wang,  A. Warshel,  
 C. F. Williams,  Q. Wu,  X. Xu,  W. Zhang

 Please cite Q-Chem as follows:
 Y. Shao et al., Mol. Phys. 113, 184-215 (2015)
 DOI: 10.1080/00268976.2014.952696

 Q-Chem 5.1.1 for Intel X86 EM64T Linux

 Parts of Q-Chem use Armadillo 8.300.2 (Tropical Shenanigans).
 http://arma.sourceforge.net/

 Q-Chem begins on Fri Oct 23 11:46:01 2020  

Host: n0049.mhg0
0

     Scratch files written to /local/scratch/users/yhljason/CH3_XYGJOS_aug-cc-pcV5Z.inp20201023032241//
The previous job contains 0 fragments, simply inherited here
Input Ideriv = 1
Curr. Ideriv = -1
Max.  Ideriv = 1

Checking the input file for inconsistencies... 	...done.

--------------------------------------------------------------
User input:
--------------------------------------------------------------
$molecule
read
$end

$rem

jobtype sp
exchange XYGJOS
xc_grid 000099000590
basis aug-cc-pcV5Z
aux_basis rimp2-aug-cc-pVQZ
max_scf_cycles 200
thresh 14
scf_convergence 8
mem_total 128000
cc_memory 96000
cc_backend xm
mem_static 1500
symmetry false
sym_ignore true
scf_guess read
unrestricted false
scf_algorithm gdm
n_frozen_core 1000
$end

$multipole_field
YY -0.0001
$end


--------------------------------------------------------------
 ----------------------------------------------------------------
             Standard Nuclear Orientation (Angstroms)
    I     Atom           X                Y                Z
 ----------------------------------------------------------------
    1      C       0.0000000000     0.0000000000     0.0000000000
    2      H       1.0790000000     0.0000000000     0.0000000000
    3      H      -0.5395000000    -0.9344000000     0.0000000000
    4      H      -0.5395000000     0.9344000000     0.0000000000
 ----------------------------------------------------------------
 Nuclear Repulsion Energy =     9.6774633775 hartrees
 There are        5 alpha and        4 beta electrons
 Requested basis set is aug-cc-pCV5Z
 There are 101 shells and 421 basis functions

 Total QAlloc Memory Limit 128000 MB
 Mega-Array Size      1467 MB
 MEM_STATIC part      1500 MB

                       Distance Matrix (Angstroms)
             C (  1)   H (  2)   H (  3)
   H (  2)  1.079000
   H (  3)  1.078964  1.868862
   H (  4)  1.078964  1.868862  1.868800
 
 Applying Cartesian multipole field
    Component          Value
    ---------          -----
     (0,2,0)       -1.00000E-04
 Nucleus-field energy     =    -0.0006235817 hartrees
 Requested basis set is rimp2-aug-cc-pVQZ
 There are 96 shells and 408 basis functions
 A cutoff of  1.0D-14 yielded   5151 shell pairs
 There are     89891 function pairs (    162981 Cartesian)
 
 -------------------------------------------------------
 OpenMP Integral Computing Module                       
 Release: version 1.0, May 2013, Q-Chem Inc. Pittsburgh 
 -------------------------------------------------------
 Integral Job Info:
 Integral job number is                      11
 Integral operator is                         1
 short-range coefficients                     0
 long-range coefficients              100000000
 Omega coefficients                           0
 if combine SR and LR in K                    0
 Integral screening is                        0
 Integral computing path is                   2
 max size of driver memory is           6400000
 size of driver memory is               5498286
 size of scratch memory is             29551430
 max col of scratch BK array             194481
 max len of scratch array in speh3         5572
 max len of scratch index in speh4           72
 max int batch size is                      520
 min int batch size is                       52
 fixed nKL is                                30
 max L of basis functions is                  5
 order of int derivative is                   0
 number of shells is                        101
 number of basis is                         566
 number of cartesian basis is               566
 number of contracted shell pairs          5151
 number of primitive shell pairs           8424
 maxK2 (contraction) of shell pair          100
 max number of K2 of shell pair               1
 max number of CS2 of shell pair            588
 max number of PS2 of shell pair            588
 mem total for path MDJ                 1097632
 -------------------------------------------------------
 Smallest overlap matrix eigenvalue = 4.80E-06
 Guess MOs from SCF MO coefficient file
 Reading MOs from coefficient file
 Reading MOs from coefficient file
 A restricted hybrid HF-DFT SCF calculation will be
 performed using Geometric Direct Minimization
 Exchange:     0.2000 Hartree-Fock + 0.0800 Slater + 0.7200 B88
 Correlation:  0.1900 VWN1RPA + 0.8100 LYP
 Using Euler-Maclaurin-Lebedev (99,590) quadrature formula
 SCF converges when RMS gradient is below 1.0E-08
Using Q-Chem read-in guess as SCF_GUESS READ specified.

 using 8 threads for integral computing
 -------------------------------------------------------
 OpenMP Integral computing Module                
 Release: version 2.0, May 2017, Q-Chem Inc. Pleasanton 
 -------------------------------------------------------
 LTot/LBra/LKet=          20          10          10
 LTot/LBra/LKet=          19           9          10
 LTot/LBra/LKet=          20          10          10
 LTot/LBra/LKet=          20          10          10
 LTot/LBra/LKet=          19           9          10

 Q-Chem warning:

 in GenH1, ket side, handled with new code


 Q-Chem warning:

 in GenH1, ket side, handled with new code


 Q-Chem warning:

 in GenH1, ket side, handled with new code


 Q-Chem warning:

 in GenH1, ket side, handled with new code

 LTot/LBra/LKet=          19           9          10
 LTot/LBra/LKet=          19           9          10

 Q-Chem warning:

 in GenH1, ket side, handled with new code

 LTot/LBra/LKet=          19           9          10

 Q-Chem warning:

 in GenH1, ket side, handled with new code


 Q-Chem warning:

 in GenH1, ket side, handled with new code


 Q-Chem warning:

 in GenH1, ket side, handled with new code

 LTot/LBra/LBra=          20          10          10

 Q-Chem warning:

 in GenH1, bra side, handled with new code

TIMEINFO->: J/JK contribution 1390.73 sec.
 -------------------------------------------------------
 OpenMP BLAS3 based DFT computing Module                
 Release: version 1.0, May 2013, Q-Chem Inc. Pittsburgh 
 -------------------------------------------------------
 ---------------------------------------
  Cycle       Energy        RMS Gradient
 ---------------------------------------
    1     -39.8612276916      7.83E-04 Normal BFGS step
TIMEINFO->: J/JK contribution 1398.19 sec.
    2     -39.8612287862      9.09E-04 Normal BFGS step
TIMEINFO->: J/JK contribution 1379.23 sec.
    3     -39.8612294981      1.68E-04 Normal BFGS step
TIMEINFO->: J/JK contribution 1379.24 sec.
    4     -39.8612295658      4.25E-05 Normal BFGS step
TIMEINFO->: J/JK contribution 1369.48 sec.
    5     -39.8612295689      5.29E-06 Normal BFGS step
TIMEINFO->: J/JK contribution 1349.13 sec.
    6     -39.8612295690      1.60E-06 Normal BFGS step
TIMEINFO->: J/JK contribution 1323.90 sec.
    7     -39.8612295690      2.71E-07 Normal BFGS step
TIMEINFO->: J/JK contribution 1281.88 sec.
    8     -39.8612295690      5.35E-08 Normal BFGS step
TIMEINFO->: J/JK contribution 1252.63 sec.
    9     -39.8612295690      1.18E-08 Normal BFGS step
TIMEINFO->: J/JK contribution 1185.42 sec.
   GDM::WARNING energy changes are now smaller than effective accuracy.
   GDM::        calculation will continue, but THRESH should be increased
   GDM::        or SCF_CONVERGENCE decreased.
   GDM::        effective_thresh =   5.000000000000000E-011
   10     -39.8612295690      3.45E-09 Convergence criterion met
 ---------------------------------------
 B3LYP orbitals are now ready for the XYGJ-OS calculation.
 XYGJ-OS energy = Exch (0.7731 HF  + 0.2269 Slater) + 
                  Corr (0.2754 LYP + 0.2309 VWN1RPA + 0.4364 OS-MP2)
 SCF time:  CPU 13815.63 s  wall 1735.00 s
 SCF   energy in the final basis set = -39.65325177
 Total energy in the final basis set = -39.65325177
 Entering Scaled Opposite Spin MP2
 NBasAux in rimp2.F =          408

 OS-MP2 job begins now...

 SOS scaling factor =  0.4
 Form (P|Q)**(-1/2)...

 Q-Chem fatal error occurred in module libmdc/qalloc.C, line 49:

 Illegal memory length in mega_alloc


 Please submit a crash report at q-chem.com/reporter 
 
 
 
User input: 6 of 7 
 
Q-Chem Developer Version!
                  Welcome to Q-Chem
     A Quantum Leap Into The Future Of Chemistry


 Q-Chem 5.1, Q-Chem, Inc., Pleasanton, CA (2018)

 Yihan Shao,  Zhengting Gan,  E. Epifanovsky,  A. T. B. Gilbert,  M. Wormit,  
 J. Kussmann,  A. W. Lange,  A. Behn,  Jia Deng,  Xintian Feng,  D. Ghosh,  
 M. Goldey,  P. R. Horn,  L. D. Jacobson,  I. Kaliman,  T. Kus,  A. Landau,  
 Jie Liu,  E. I. Proynov,  R. M. Richard,  R. P. Steele,  E. J. Sundstrom,  
 H. L. Woodcock III,  P. M. Zimmerman,  D. Zuev,  B. Albrecht,  E. Alguire,  
 S. A. Baeppler,  D. Barton,  Z. Benda,  Y. A. Bernard,  E. J. Berquist,  
 K. B. Bravaya,  H. Burton,  D. Casanova,  Chun-Min Chang,  Yunqing Chen,  
 A. Chien,  K. D. Closser,  M. P. Coons,  S. Coriani,  S. Dasgupta,  
 A. L. Dempwolff,  M. Diedenhofen,  Hainam Do,  R. G. Edgar,  Po-Tung Fang,  
 S. Faraji,  S. Fatehi,  Qingguo Feng,  K. D. Fenk,  J. Fosso-Tande,  
 Qinghui Ge,  A. Ghysels,  G. Gidofalvi,  J. Gomes,  J. Gonthier,  A. Gunina,  
 D. Hait,  M. W. D. Hanson-Heine,  P. H. P. Harbach,  A. W. Hauser,  
 J. E. Herr,  E. G. Hohenstein,  Z. C. Holden,  Kerwin Hui,  B. C. Huynh,  
 T.-C. Jagau,  Hyunjun Ji,  B. Kaduk,  K. Khistyaev,  Jaehoon Kim,  
 P. Klunzinger,  K. Koh,  D. Kosenkov,  L. Koulias,  T. Kowalczyk,  
 C. M. Krauter,  A. Kunitsa,  Ka Un Lao,  A. Laurent,  K. V. Lawler,  
 Joonho Lee,  D. Lefrancois,  S. Lehtola,  D. S. Levine,  Yi-Pei Li,  
 You-Sheng Lin,  Fenglai Liu,  E. Livshits,  A. Luenser,  P. Manohar,  
 E. Mansoor,  S. F. Manzer,  Shan-Ping Mao,  Yuezhi Mao,  N. Mardirossian,  
 A. V. Marenich,  T. Markovich,  L. A. Martinez-Martinez,  S. A. Maurer,  
 N. J. Mayhall,  S. C. McKenzie,  J.-M. Mewes,  A. F. Morrison,  
 J. W. Mullinax,  K. Nanda,  T. S. Nguyen-Beck,  R. Olivares-Amaya,  
 J. A. Parkhill,  T. M. Perrine,  F. Plasser,  P. Pokhilko,  S. Prager,  
 A. Prociuk,  E. Ramos,  D. R. Rehn,  F. Rob,  M. Schneider,  N. Sergueev,  
 S. M. Sharada,  S. Sharma,  D. W. Small,  T. Stauch,  T. Stein,  
 Yu-Chuan Su,  A. J. W. Thom,  A. Tkatchenko,  T. Tsuchimochi,  N. M. Tubman,  
 L. Vogt,  M. L. Vidal,  O. Vydrov,  M. A. Watson,  J. Wenzel,  
 M. de Wergifosse,  T. A. Wesolowski,  A. White,  J. Witte,  A. Yamada,  
 Jun Yang,  K. Yao,  S. Yeganeh,  S. R. Yost,  Zhi-Qiang You,  A. Zech,  
 Igor Ying Zhang,  Xing Zhang,  Yan Zhao,  Ying Zhu,  B. R. Brooks,  
 G. K. L. Chan,  C. J. Cramer,  M. S. Gordon,  W. J. Hehre,  A. Klamt,  
 M. W. Schmidt,  C. D. Sherrill,  D. G. Truhlar,  A. Aspuru-Guzik,  R. Baer,  
 A. T. Bell,  N. A. Besley,  Jeng-Da Chai,  A. E. DePrince, III,  
 R. A. DiStasio Jr.,  A. Dreuw,  B. D. Dunietz,  T. R. Furlani,  
 Chao-Ping Hsu,  Yousung Jung,  Jing Kong,  D. S. Lambrecht,  WanZhen Liang,  
 C. Ochsenfeld,  V. A. Rassolov,  L. V. Slipchenko,  J. E. Subotnik,  
 T. Van Voorhis,  J. M. Herbert,  A. I. Krylov,  P. M. W. Gill,  M. Head-Gordon

 Contributors to earlier versions of Q-Chem not listed above: 
 R. D. Adamson,  B. Austin,  J. Baker,  G. J. O. Beran,  K. Brandhorst,  
 S. T. Brown,  E. F. C. Byrd,  A. K. Chakraborty,  C.-L. Cheng,  
 Siu Hung Chien,  D. M. Chipman,  D. L. Crittenden,  H. Dachsel,  
 R. J. Doerksen,  A. D. Dutoi,  L. Fusti-Molnar,  W. A. Goddard III,  
 A. Golubeva-Zadorozhnaya,  S. R. Gwaltney,  G. Hawkins,  A. Heyden,  
 S. Hirata,  G. Kedziora,  F. J. Keil,  C. Kelley,  Jihan Kim,  R. A. King,  
 R. Z. Khaliullin,  P. P. Korambath,  W. Kurlancheek,  A. M. Lee,  M. S. Lee,  
 S. V. Levchenko,  Ching Yeh Lin,  D. Liotard,  R. C. Lochan,  I. Lotan,  
 P. E. Maslen,  N. Nair,  D. P. O'Neill,  D. Neuhauser,  E. Neuscamman,  
 C. M. Oana,  R. Olson,  B. Peters,  R. Peverati,  P. A. Pieniazek,  
 Y. M. Rhee,  J. Ritchie,  M. A. Rohrdanz,  E. Rosta,  N. J. Russ,  
 H. F. Schaefer III,  N. E. Schultz,  N. Shenvi,  A. C. Simmonett,  A. Sodt,  
 D. Stuck,  K. S. Thanthiriwatte,  V. Vanovschi,  Tao Wang,  A. Warshel,  
 C. F. Williams,  Q. Wu,  X. Xu,  W. Zhang

 Please cite Q-Chem as follows:
 Y. Shao et al., Mol. Phys. 113, 184-215 (2015)
 DOI: 10.1080/00268976.2014.952696

 Q-Chem 5.1.1 for Intel X86 EM64T Linux

 Parts of Q-Chem use Armadillo 8.300.2 (Tropical Shenanigans).
 http://arma.sourceforge.net/

 Q-Chem begins on Fri Oct 23 12:15:00 2020  

Host: n0049.mhg0
0

     Scratch files written to /local/scratch/users/yhljason/CH3_XYGJOS_aug-cc-pcV5Z.inp20201023032241//
The previous job contains 0 fragments, simply inherited here
Input Ideriv = 1
Curr. Ideriv = -1
Max.  Ideriv = 1

Checking the input file for inconsistencies... 	...done.

--------------------------------------------------------------
User input:
--------------------------------------------------------------
$molecule
read
$end

$rem

jobtype sp
exchange XYGJOS
xc_grid 000099000590
basis aug-cc-pcV5Z
aux_basis rimp2-aug-cc-pVQZ
max_scf_cycles 200
thresh 14
scf_convergence 8
mem_total 128000
cc_memory 96000
cc_backend xm
mem_static 1500
symmetry false
sym_ignore true
scf_guess read
unrestricted false
scf_algorithm gdm
n_frozen_core 1000
$end

$multipole_field
ZZ 0.0001
$end


--------------------------------------------------------------
 ----------------------------------------------------------------
             Standard Nuclear Orientation (Angstroms)
    I     Atom           X                Y                Z
 ----------------------------------------------------------------
    1      C       0.0000000000     0.0000000000     0.0000000000
    2      H       1.0790000000     0.0000000000     0.0000000000
    3      H      -0.5395000000    -0.9344000000     0.0000000000
    4      H      -0.5395000000     0.9344000000     0.0000000000
 ----------------------------------------------------------------
 Nuclear Repulsion Energy =     9.6774633775 hartrees
 There are        5 alpha and        4 beta electrons
 Requested basis set is aug-cc-pCV5Z
 There are 101 shells and 421 basis functions

 Total QAlloc Memory Limit 128000 MB
 Mega-Array Size      1467 MB
 MEM_STATIC part      1500 MB

                       Distance Matrix (Angstroms)
             C (  1)   H (  2)   H (  3)
   H (  2)  1.079000
   H (  3)  1.078964  1.868862
   H (  4)  1.078964  1.868862  1.868800
 
 Applying Cartesian multipole field
    Component          Value
    ---------          -----
     (0,0,2)        1.00000E-04
 Requested basis set is rimp2-aug-cc-pVQZ
 There are 96 shells and 408 basis functions
 A cutoff of  1.0D-14 yielded   5151 shell pairs
 There are     89891 function pairs (    162981 Cartesian)
 
 -------------------------------------------------------
 OpenMP Integral Computing Module                       
 Release: version 1.0, May 2013, Q-Chem Inc. Pittsburgh 
 -------------------------------------------------------
 Integral Job Info:
 Integral job number is                      11
 Integral operator is                         1
 short-range coefficients                     0
 long-range coefficients              100000000
 Omega coefficients                           0
 if combine SR and LR in K                    0
 Integral screening is                        0
 Integral computing path is                   2
 max size of driver memory is           6400000
 size of driver memory is               5498286
 size of scratch memory is             29551430
 max col of scratch BK array             194481
 max len of scratch array in speh3         5572
 max len of scratch index in speh4           72
 max int batch size is                      520
 min int batch size is                       52
 fixed nKL is                                30
 max L of basis functions is                  5
 order of int derivative is                   0
 number of shells is                        101
 number of basis is                         566
 number of cartesian basis is               566
 number of contracted shell pairs          5151
 number of primitive shell pairs           8424
 maxK2 (contraction) of shell pair          100
 max number of K2 of shell pair               1
 max number of CS2 of shell pair            588
 max number of PS2 of shell pair            588
 mem total for path MDJ                 1097632
 -------------------------------------------------------
 Smallest overlap matrix eigenvalue = 4.80E-06
 Guess MOs from SCF MO coefficient file
 Reading MOs from coefficient file
 Reading MOs from coefficient file
 A restricted hybrid HF-DFT SCF calculation will be
 performed using Geometric Direct Minimization
 Exchange:     0.2000 Hartree-Fock + 0.0800 Slater + 0.7200 B88
 Correlation:  0.1900 VWN1RPA + 0.8100 LYP
 Using Euler-Maclaurin-Lebedev (99,590) quadrature formula
 SCF converges when RMS gradient is below 1.0E-08
Using Q-Chem read-in guess as SCF_GUESS READ specified.

 using 8 threads for integral computing
 -------------------------------------------------------
 OpenMP Integral computing Module                
 Release: version 2.0, May 2017, Q-Chem Inc. Pleasanton 
 -------------------------------------------------------
 LTot/LBra/LKet=          20          10          10
 LTot/LBra/LKet=          20          10          10
 LTot/LBra/LKet=          19           9          10

 Q-Chem warning:

 in GenH1, ket side, handled with new code

 LTot/LBra/LKet=          20          10          10
 LTot/LBra/LKet=          19           9          10
 LTot/LBra/LKet=          19           9          10

 Q-Chem warning:

 in GenH1, ket side, handled with new code


 Q-Chem warning:

 in GenH1, ket side, handled with new code


 Q-Chem warning:

 in GenH1, ket side, handled with new code

 LTot/LBra/LKet=          19           9          10

 Q-Chem warning:

 in GenH1, ket side, handled with new code

 LTot/LBra/LKet=          19           9          10

 Q-Chem warning:

 in GenH1, ket side, handled with new code


 Q-Chem warning:

 in GenH1, ket side, handled with new code

 LTot/LBra/LBra=          20          10          10

 Q-Chem warning:

 in GenH1, bra side, handled with new code


 Q-Chem warning:

 in GenH1, ket side, handled with new code

TIMEINFO->: J/JK contribution 1376.75 sec.
 -------------------------------------------------------
 OpenMP BLAS3 based DFT computing Module                
 Release: version 1.0, May 2013, Q-Chem Inc. Pittsburgh 
 -------------------------------------------------------
 ---------------------------------------
  Cycle       Energy        RMS Gradient
 ---------------------------------------
    1     -39.8624572268      1.28E-03 Normal BFGS step
TIMEINFO->: J/JK contribution 1394.18 sec.
    2     -39.8624574158      1.29E-03 Normal BFGS step
TIMEINFO->: J/JK contribution 1383.27 sec.
    3     -39.8624582927      6.54E-05 Normal BFGS step
TIMEINFO->: J/JK contribution 1372.15 sec.
    4     -39.8624583066      8.82E-05 Normal BFGS step
TIMEINFO->: J/JK contribution 1360.86 sec.
    5     -39.8624583112      8.30E-06 Normal BFGS step
TIMEINFO->: J/JK contribution 1346.14 sec.
    6     -39.8624583113      1.80E-06 Normal BFGS step
TIMEINFO->: J/JK contribution 1324.33 sec.
    7     -39.8624583113      7.61E-08 Normal BFGS step
TIMEINFO->: J/JK contribution 1257.30 sec.
   GDM::WARNING energy changes are now smaller than effective accuracy.
   GDM::        calculation will continue, but THRESH should be increased
   GDM::        or SCF_CONVERGENCE decreased.
   GDM::        effective_thresh =   5.000000000000000E-011
    8     -39.8624583113      2.89E-08 Normal BFGS step
TIMEINFO->: J/JK contribution 1199.56 sec.
   GDM::WARNING energy changes are now smaller than effective accuracy.
   GDM::        calculation will continue, but THRESH should be increased
   GDM::        or SCF_CONVERGENCE decreased.
   GDM::        effective_thresh =   5.000000000000000E-011
    9     -39.8624583113      1.85E-09 Convergence criterion met
 ---------------------------------------
 B3LYP orbitals are now ready for the XYGJ-OS calculation.
 XYGJ-OS energy = Exch (0.7731 HF  + 0.2269 Slater) + 
                  Corr (0.2754 LYP + 0.2309 VWN1RPA + 0.4364 OS-MP2)
 SCF time:  CPU 12479.01 s  wall 1579.61 s
 SCF   energy in the final basis set = -39.65446086
 Total energy in the final basis set = -39.65446086
 Entering Scaled Opposite Spin MP2
 NBasAux in rimp2.F =          408

 OS-MP2 job begins now...

 SOS scaling factor =  0.4
 Form (P|Q)**(-1/2)...

 Q-Chem fatal error occurred in module libmdc/qalloc.C, line 49:

 Illegal memory length in mega_alloc


 Please submit a crash report at q-chem.com/reporter 
 
 
 
User input: 7 of 7 
 
Q-Chem Developer Version!
                  Welcome to Q-Chem
     A Quantum Leap Into The Future Of Chemistry


 Q-Chem 5.1, Q-Chem, Inc., Pleasanton, CA (2018)

 Yihan Shao,  Zhengting Gan,  E. Epifanovsky,  A. T. B. Gilbert,  M. Wormit,  
 J. Kussmann,  A. W. Lange,  A. Behn,  Jia Deng,  Xintian Feng,  D. Ghosh,  
 M. Goldey,  P. R. Horn,  L. D. Jacobson,  I. Kaliman,  T. Kus,  A. Landau,  
 Jie Liu,  E. I. Proynov,  R. M. Richard,  R. P. Steele,  E. J. Sundstrom,  
 H. L. Woodcock III,  P. M. Zimmerman,  D. Zuev,  B. Albrecht,  E. Alguire,  
 S. A. Baeppler,  D. Barton,  Z. Benda,  Y. A. Bernard,  E. J. Berquist,  
 K. B. Bravaya,  H. Burton,  D. Casanova,  Chun-Min Chang,  Yunqing Chen,  
 A. Chien,  K. D. Closser,  M. P. Coons,  S. Coriani,  S. Dasgupta,  
 A. L. Dempwolff,  M. Diedenhofen,  Hainam Do,  R. G. Edgar,  Po-Tung Fang,  
 S. Faraji,  S. Fatehi,  Qingguo Feng,  K. D. Fenk,  J. Fosso-Tande,  
 Qinghui Ge,  A. Ghysels,  G. Gidofalvi,  J. Gomes,  J. Gonthier,  A. Gunina,  
 D. Hait,  M. W. D. Hanson-Heine,  P. H. P. Harbach,  A. W. Hauser,  
 J. E. Herr,  E. G. Hohenstein,  Z. C. Holden,  Kerwin Hui,  B. C. Huynh,  
 T.-C. Jagau,  Hyunjun Ji,  B. Kaduk,  K. Khistyaev,  Jaehoon Kim,  
 P. Klunzinger,  K. Koh,  D. Kosenkov,  L. Koulias,  T. Kowalczyk,  
 C. M. Krauter,  A. Kunitsa,  Ka Un Lao,  A. Laurent,  K. V. Lawler,  
 Joonho Lee,  D. Lefrancois,  S. Lehtola,  D. S. Levine,  Yi-Pei Li,  
 You-Sheng Lin,  Fenglai Liu,  E. Livshits,  A. Luenser,  P. Manohar,  
 E. Mansoor,  S. F. Manzer,  Shan-Ping Mao,  Yuezhi Mao,  N. Mardirossian,  
 A. V. Marenich,  T. Markovich,  L. A. Martinez-Martinez,  S. A. Maurer,  
 N. J. Mayhall,  S. C. McKenzie,  J.-M. Mewes,  A. F. Morrison,  
 J. W. Mullinax,  K. Nanda,  T. S. Nguyen-Beck,  R. Olivares-Amaya,  
 J. A. Parkhill,  T. M. Perrine,  F. Plasser,  P. Pokhilko,  S. Prager,  
 A. Prociuk,  E. Ramos,  D. R. Rehn,  F. Rob,  M. Schneider,  N. Sergueev,  
 S. M. Sharada,  S. Sharma,  D. W. Small,  T. Stauch,  T. Stein,  
 Yu-Chuan Su,  A. J. W. Thom,  A. Tkatchenko,  T. Tsuchimochi,  N. M. Tubman,  
 L. Vogt,  M. L. Vidal,  O. Vydrov,  M. A. Watson,  J. Wenzel,  
 M. de Wergifosse,  T. A. Wesolowski,  A. White,  J. Witte,  A. Yamada,  
 Jun Yang,  K. Yao,  S. Yeganeh,  S. R. Yost,  Zhi-Qiang You,  A. Zech,  
 Igor Ying Zhang,  Xing Zhang,  Yan Zhao,  Ying Zhu,  B. R. Brooks,  
 G. K. L. Chan,  C. J. Cramer,  M. S. Gordon,  W. J. Hehre,  A. Klamt,  
 M. W. Schmidt,  C. D. Sherrill,  D. G. Truhlar,  A. Aspuru-Guzik,  R. Baer,  
 A. T. Bell,  N. A. Besley,  Jeng-Da Chai,  A. E. DePrince, III,  
 R. A. DiStasio Jr.,  A. Dreuw,  B. D. Dunietz,  T. R. Furlani,  
 Chao-Ping Hsu,  Yousung Jung,  Jing Kong,  D. S. Lambrecht,  WanZhen Liang,  
 C. Ochsenfeld,  V. A. Rassolov,  L. V. Slipchenko,  J. E. Subotnik,  
 T. Van Voorhis,  J. M. Herbert,  A. I. Krylov,  P. M. W. Gill,  M. Head-Gordon

 Contributors to earlier versions of Q-Chem not listed above: 
 R. D. Adamson,  B. Austin,  J. Baker,  G. J. O. Beran,  K. Brandhorst,  
 S. T. Brown,  E. F. C. Byrd,  A. K. Chakraborty,  C.-L. Cheng,  
 Siu Hung Chien,  D. M. Chipman,  D. L. Crittenden,  H. Dachsel,  
 R. J. Doerksen,  A. D. Dutoi,  L. Fusti-Molnar,  W. A. Goddard III,  
 A. Golubeva-Zadorozhnaya,  S. R. Gwaltney,  G. Hawkins,  A. Heyden,  
 S. Hirata,  G. Kedziora,  F. J. Keil,  C. Kelley,  Jihan Kim,  R. A. King,  
 R. Z. Khaliullin,  P. P. Korambath,  W. Kurlancheek,  A. M. Lee,  M. S. Lee,  
 S. V. Levchenko,  Ching Yeh Lin,  D. Liotard,  R. C. Lochan,  I. Lotan,  
 P. E. Maslen,  N. Nair,  D. P. O'Neill,  D. Neuhauser,  E. Neuscamman,  
 C. M. Oana,  R. Olson,  B. Peters,  R. Peverati,  P. A. Pieniazek,  
 Y. M. Rhee,  J. Ritchie,  M. A. Rohrdanz,  E. Rosta,  N. J. Russ,  
 H. F. Schaefer III,  N. E. Schultz,  N. Shenvi,  A. C. Simmonett,  A. Sodt,  
 D. Stuck,  K. S. Thanthiriwatte,  V. Vanovschi,  Tao Wang,  A. Warshel,  
 C. F. Williams,  Q. Wu,  X. Xu,  W. Zhang

 Please cite Q-Chem as follows:
 Y. Shao et al., Mol. Phys. 113, 184-215 (2015)
 DOI: 10.1080/00268976.2014.952696

 Q-Chem 5.1.1 for Intel X86 EM64T Linux

 Parts of Q-Chem use Armadillo 8.300.2 (Tropical Shenanigans).
 http://arma.sourceforge.net/

 Q-Chem begins on Fri Oct 23 12:41:24 2020  

Host: n0049.mhg0
0

     Scratch files written to /local/scratch/users/yhljason/CH3_XYGJOS_aug-cc-pcV5Z.inp20201023032241//
The previous job contains 0 fragments, simply inherited here
Input Ideriv = 1
Curr. Ideriv = -1
Max.  Ideriv = 1

Checking the input file for inconsistencies... 	...done.

--------------------------------------------------------------
User input:
--------------------------------------------------------------
$molecule
read
$end

$rem

jobtype sp
exchange XYGJOS
xc_grid 000099000590
basis aug-cc-pcV5Z
aux_basis rimp2-aug-cc-pVQZ
max_scf_cycles 200
thresh 14
scf_convergence 8
mem_total 128000
cc_memory 96000
cc_backend xm
mem_static 1500
symmetry false
sym_ignore true
scf_guess read
unrestricted false
scf_algorithm gdm
n_frozen_core 1000
$end

$multipole_field
ZZ -0.0001
$end

--------------------------------------------------------------
 ----------------------------------------------------------------
             Standard Nuclear Orientation (Angstroms)
    I     Atom           X                Y                Z
 ----------------------------------------------------------------
    1      C       0.0000000000     0.0000000000     0.0000000000
    2      H       1.0790000000     0.0000000000     0.0000000000
    3      H      -0.5395000000    -0.9344000000     0.0000000000
    4      H      -0.5395000000     0.9344000000     0.0000000000
 ----------------------------------------------------------------
 Nuclear Repulsion Energy =     9.6774633775 hartrees
 There are        5 alpha and        4 beta electrons
 Requested basis set is aug-cc-pCV5Z
 There are 101 shells and 421 basis functions

 Total QAlloc Memory Limit 128000 MB
 Mega-Array Size      1467 MB
 MEM_STATIC part      1500 MB

                       Distance Matrix (Angstroms)
             C (  1)   H (  2)   H (  3)
   H (  2)  1.079000
   H (  3)  1.078964  1.868862
   H (  4)  1.078964  1.868862  1.868800
 
 Applying Cartesian multipole field
    Component          Value
    ---------          -----
     (0,0,2)       -1.00000E-04
 Requested basis set is rimp2-aug-cc-pVQZ
 There are 96 shells and 408 basis functions
 A cutoff of  1.0D-14 yielded   5151 shell pairs
 There are     89891 function pairs (    162981 Cartesian)
 
 -------------------------------------------------------
 OpenMP Integral Computing Module                       
 Release: version 1.0, May 2013, Q-Chem Inc. Pittsburgh 
 -------------------------------------------------------
 Integral Job Info:
 Integral job number is                      11
 Integral operator is                         1
 short-range coefficients                     0
 long-range coefficients              100000000
 Omega coefficients                           0
 if combine SR and LR in K                    0
 Integral screening is                        0
 Integral computing path is                   2
 max size of driver memory is           6400000
 size of driver memory is               5498286
 size of scratch memory is             29551430
 max col of scratch BK array             194481
 max len of scratch array in speh3         5572
 max len of scratch index in speh4           72
 max int batch size is                      520
 min int batch size is                       52
 fixed nKL is                                30
 max L of basis functions is                  5
 order of int derivative is                   0
 number of shells is                        101
 number of basis is                         566
 number of cartesian basis is               566
 number of contracted shell pairs          5151
 number of primitive shell pairs           8424
 maxK2 (contraction) of shell pair          100
 max number of K2 of shell pair               1
 max number of CS2 of shell pair            588
 max number of PS2 of shell pair            588
 mem total for path MDJ                 1097632
 -------------------------------------------------------
 Smallest overlap matrix eigenvalue = 4.80E-06
 Guess MOs from SCF MO coefficient file
 Reading MOs from coefficient file
 Reading MOs from coefficient file
 A restricted hybrid HF-DFT SCF calculation will be
 performed using Geometric Direct Minimization
 Exchange:     0.2000 Hartree-Fock + 0.0800 Slater + 0.7200 B88
 Correlation:  0.1900 VWN1RPA + 0.8100 LYP
 Using Euler-Maclaurin-Lebedev (99,590) quadrature formula
 SCF converges when RMS gradient is below 1.0E-08
Using Q-Chem read-in guess as SCF_GUESS READ specified.

 using 8 threads for integral computing
 -------------------------------------------------------
 OpenMP Integral computing Module                
 Release: version 2.0, May 2017, Q-Chem Inc. Pleasanton 
 -------------------------------------------------------
 LTot/LBra/LKet=          20          10          10
 LTot/LBra/LKet=          19           9          10
 LTot/LBra/LKet=          20          10          10
 LTot/LBra/LKet=          19           9          10
 LTot/LBra/LKet=          19           9          10
 LTot/LBra/LKet=          19           9          10
 LTot/LBra/LKet=          19           9          10

 Q-Chem warning:

 in GenH1, ket side, handled with new code


 Q-Chem warning:

 in GenH1, ket side, handled with new code


 Q-Chem warning:

 in GenH1, ket side, handled with new code


 Q-Chem warning:

 in GenH1, ket side, handled with new code

 LTot/LBra/LKet=          20          10          10

 Q-Chem warning:

 in GenH1, ket side, handled with new code


 Q-Chem warning:

 in GenH1, ket side, handled with new code


 Q-Chem warning:

 in GenH1, ket side, handled with new code


 Q-Chem warning:

 in GenH1, ket side, handled with new code

 LTot/LBra/LBra=          20          10          10

 Q-Chem warning:

 in GenH1, bra side, handled with new code

TIMEINFO->: J/JK contribution 1394.27 sec.
 -------------------------------------------------------
 OpenMP BLAS3 based DFT computing Module                
 Release: version 1.0, May 2013, Q-Chem Inc. Pittsburgh 
 -------------------------------------------------------
 ---------------------------------------
  Cycle       Energy        RMS Gradient
 ---------------------------------------
    1     -39.8610875694      1.94E-03 Normal BFGS step
TIMEINFO->: J/JK contribution 1397.66 sec.
    2     -39.8610885572      1.58E-03 Normal BFGS step
TIMEINFO->: J/JK contribution 1389.18 sec.
    3     -39.8610895327      1.37E-04 Normal BFGS step
TIMEINFO->: J/JK contribution 1375.36 sec.
    4     -39.8610895853      1.71E-04 Normal BFGS step
TIMEINFO->: J/JK contribution 1372.65 sec.
    5     -39.8610896042      1.73E-05 Normal BFGS step
TIMEINFO->: J/JK contribution 1348.37 sec.
    6     -39.8610896044      3.69E-06 Normal BFGS step
TIMEINFO->: J/JK contribution 1338.36 sec.
    7     -39.8610896044      1.49E-07 Normal BFGS step
TIMEINFO->: J/JK contribution 1216.89 sec.
    8     -39.8610896044      1.26E-08 Normal BFGS step
TIMEINFO->: J/JK contribution 1113.27 sec.
   GDM::WARNING energy changes are now smaller than effective accuracy.
   GDM::        calculation will continue, but THRESH should be increased
   GDM::        or SCF_CONVERGENCE decreased.
   GDM::        effective_thresh =   5.000000000000000E-011
    9     -39.8610896044      1.19E-09 Convergence criterion met
 ---------------------------------------
 B3LYP orbitals are now ready for the XYGJ-OS calculation.
 XYGJ-OS energy = Exch (0.7731 HF  + 0.2269 Slater) + 
                  Corr (0.2754 LYP + 0.2309 VWN1RPA + 0.4364 OS-MP2)
 SCF time:  CPU 12404.70 s  wall 1559.83 s
 SCF   energy in the final basis set = -39.65310998
 Total energy in the final basis set = -39.65310998
 Entering Scaled Opposite Spin MP2
 NBasAux in rimp2.F =          408

 OS-MP2 job begins now...

 SOS scaling factor =  0.4
 Form (P|Q)**(-1/2)...

 Q-Chem fatal error occurred in module libmdc/qalloc.C, line 49:

 Illegal memory length in mega_alloc


 Please submit a crash report at q-chem.com/reporter 
 
 
