Q-Chem Developer Version!
                  Welcome to Q-Chem
     A Quantum Leap Into The Future Of Chemistry


 Q-Chem 5.1, Q-Chem, Inc., Pleasanton, CA (2018)

 Yihan Shao,  Zhengting Gan,  E. Epifanovsky,  A. T. B. Gilbert,  M. Wormit,  
 J. Kussmann,  A. W. Lange,  A. Behn,  Jia Deng,  Xintian Feng,  D. Ghosh,  
 M. Goldey,  P. R. Horn,  L. D. Jacobson,  I. Kaliman,  T. Kus,  A. Landau,  
 Jie Liu,  E. I. Proynov,  R. M. Richard,  R. P. Steele,  E. J. Sundstrom,  
 H. L. Woodcock III,  P. M. Zimmerman,  D. Zuev,  B. Albrecht,  E. Alguire,  
 S. A. Baeppler,  D. Barton,  Z. Benda,  Y. A. Bernard,  E. J. Berquist,  
 K. B. Bravaya,  H. Burton,  D. Casanova,  Chun-Min Chang,  Yunqing Chen,  
 A. Chien,  K. D. Closser,  M. P. Coons,  S. Coriani,  S. Dasgupta,  
 A. L. Dempwolff,  M. Diedenhofen,  Hainam Do,  R. G. Edgar,  Po-Tung Fang,  
 S. Faraji,  S. Fatehi,  Qingguo Feng,  K. D. Fenk,  J. Fosso-Tande,  
 Qinghui Ge,  A. Ghysels,  G. Gidofalvi,  J. Gomes,  J. Gonthier,  A. Gunina,  
 D. Hait,  M. W. D. Hanson-Heine,  P. H. P. Harbach,  A. W. Hauser,  
 J. E. Herr,  E. G. Hohenstein,  Z. C. Holden,  Kerwin Hui,  B. C. Huynh,  
 T.-C. Jagau,  Hyunjun Ji,  B. Kaduk,  K. Khistyaev,  Jaehoon Kim,  
 P. Klunzinger,  K. Koh,  D. Kosenkov,  L. Koulias,  T. Kowalczyk,  
 C. M. Krauter,  A. Kunitsa,  Ka Un Lao,  A. Laurent,  K. V. Lawler,  
 Joonho Lee,  D. Lefrancois,  S. Lehtola,  D. S. Levine,  Yi-Pei Li,  
 You-Sheng Lin,  Fenglai Liu,  E. Livshits,  A. Luenser,  P. Manohar,  
 E. Mansoor,  S. F. Manzer,  Shan-Ping Mao,  Yuezhi Mao,  N. Mardirossian,  
 A. V. Marenich,  T. Markovich,  L. A. Martinez-Martinez,  S. A. Maurer,  
 N. J. Mayhall,  S. C. McKenzie,  J.-M. Mewes,  A. F. Morrison,  
 J. W. Mullinax,  K. Nanda,  T. S. Nguyen-Beck,  R. Olivares-Amaya,  
 J. A. Parkhill,  T. M. Perrine,  F. Plasser,  P. Pokhilko,  S. Prager,  
 A. Prociuk,  E. Ramos,  D. R. Rehn,  F. Rob,  M. Schneider,  N. Sergueev,  
 S. M. Sharada,  S. Sharma,  D. W. Small,  T. Stauch,  T. Stein,  
 Yu-Chuan Su,  A. J. W. Thom,  A. Tkatchenko,  T. Tsuchimochi,  N. M. Tubman,  
 L. Vogt,  M. L. Vidal,  O. Vydrov,  M. A. Watson,  J. Wenzel,  
 M. de Wergifosse,  T. A. Wesolowski,  A. White,  J. Witte,  A. Yamada,  
 Jun Yang,  K. Yao,  S. Yeganeh,  S. R. Yost,  Zhi-Qiang You,  A. Zech,  
 Igor Ying Zhang,  Xing Zhang,  Yan Zhao,  Ying Zhu,  B. R. Brooks,  
 G. K. L. Chan,  C. J. Cramer,  M. S. Gordon,  W. J. Hehre,  A. Klamt,  
 M. W. Schmidt,  C. D. Sherrill,  D. G. Truhlar,  A. Aspuru-Guzik,  R. Baer,  
 A. T. Bell,  N. A. Besley,  Jeng-Da Chai,  A. E. DePrince, III,  
 R. A. DiStasio Jr.,  A. Dreuw,  B. D. Dunietz,  T. R. Furlani,  
 Chao-Ping Hsu,  Yousung Jung,  Jing Kong,  D. S. Lambrecht,  WanZhen Liang,  
 C. Ochsenfeld,  V. A. Rassolov,  L. V. Slipchenko,  J. E. Subotnik,  
 T. Van Voorhis,  J. M. Herbert,  A. I. Krylov,  P. M. W. Gill,  M. Head-Gordon

 Contributors to earlier versions of Q-Chem not listed above: 
 R. D. Adamson,  B. Austin,  J. Baker,  G. J. O. Beran,  K. Brandhorst,  
 S. T. Brown,  E. F. C. Byrd,  A. K. Chakraborty,  C.-L. Cheng,  
 Siu Hung Chien,  D. M. Chipman,  D. L. Crittenden,  H. Dachsel,  
 R. J. Doerksen,  A. D. Dutoi,  L. Fusti-Molnar,  W. A. Goddard III,  
 A. Golubeva-Zadorozhnaya,  S. R. Gwaltney,  G. Hawkins,  A. Heyden,  
 S. Hirata,  G. Kedziora,  F. J. Keil,  C. Kelley,  Jihan Kim,  R. A. King,  
 R. Z. Khaliullin,  P. P. Korambath,  W. Kurlancheek,  A. M. Lee,  M. S. Lee,  
 S. V. Levchenko,  Ching Yeh Lin,  D. Liotard,  R. C. Lochan,  I. Lotan,  
 P. E. Maslen,  N. Nair,  D. P. O'Neill,  D. Neuhauser,  E. Neuscamman,  
 C. M. Oana,  R. Olson,  B. Peters,  R. Peverati,  P. A. Pieniazek,  
 Y. M. Rhee,  J. Ritchie,  M. A. Rohrdanz,  E. Rosta,  N. J. Russ,  
 H. F. Schaefer III,  N. E. Schultz,  N. Shenvi,  A. C. Simmonett,  A. Sodt,  
 D. Stuck,  K. S. Thanthiriwatte,  V. Vanovschi,  Tao Wang,  A. Warshel,  
 C. F. Williams,  Q. Wu,  X. Xu,  W. Zhang

 Please cite Q-Chem as follows:
 Y. Shao et al., Mol. Phys. 113, 184-215 (2015)
 DOI: 10.1080/00268976.2014.952696

 Q-Chem 5.1.1 for Intel X86 EM64T Linux

 Parts of Q-Chem use Armadillo 8.300.2 (Tropical Shenanigans).
 http://arma.sourceforge.net/

 Q-Chem begins on Fri Oct 23 19:43:17 2020  

Host: n0054.mhg0
0

     Scratch files written to /local/scratch/users/yhljason/Mg_XYGJOS_aug-cc-pcV5Z.inp20201023194314//
Input Ideriv = 2
Curr. Ideriv = -1
Max.  Ideriv = 2

Checking the input file for inconsistencies... 	...done.

--------------------------------------------------------------
User input:
--------------------------------------------------------------
$molecule
0 1
Mg
$end

$rem
jobtype sp
exchange XYGJOS
xc_grid 000099000590
basis gen
aux_basis rimp2-cc-pVQZ
max_scf_cycles 200
thresh 14
scf_convergence 8
scf_algorithm gdm
symmetry false
sym_ignore true
unrestricted false
gen_scfman false
internal_stability_iter 15
internal_stability_davidson_iter 200
mem_total 128000
cc_memory 96000
cc_backend xm
mem_static 1500
n_frozen_core 1000
$end

$basis
****
Mg     0
S 20 1.00
   2.968000E+06     1.971770E-06
   4.443000E+05     1.533620E-05
   1.011000E+05     8.068520E-05
   2.864000E+04     3.407710E-04
   9.343000E+03     1.241940E-03
   3.373000E+03     4.041240E-03
   1.316000E+03     1.197970E-02
   5.458000E+02     3.242530E-02
   2.381000E+02     7.893320E-02
   1.082000E+02     1.665750E-01
   5.080000E+01     2.828710E-01
   2.448000E+01     3.318900E-01
   1.193000E+01     2.032870E-01
   5.543000E+00     3.828970E-02
   2.675000E+00     3.089160E-04
   1.263000E+00     1.389070E-03
   5.883000E-01    -1.361590E-04
   1.496000E-01     8.553220E-05
   6.700000E-02    -5.691020E-05
   2.952000E-02     1.772590E-05
S 20 1.00
   2.968000E+06    -4.981600E-07
   4.443000E+05    -3.875630E-06
   1.011000E+05    -2.038540E-05
   2.864000E+04    -8.616590E-05
   9.343000E+03    -3.141760E-04
   3.373000E+03    -1.025770E-03
   1.316000E+03    -3.058160E-03
   5.458000E+02    -8.410630E-03
   2.381000E+02    -2.112020E-02
   1.082000E+02    -4.768820E-02
   5.080000E+01    -9.241190E-02
   2.448000E+01    -1.425480E-01
   1.193000E+01    -1.261680E-01
   5.543000E+00     7.152820E-02
   2.675000E+00     3.830390E-01
   1.263000E+00     4.901330E-01
   5.883000E-01     2.043810E-01
   1.496000E-01     7.022310E-03
   6.700000E-02    -2.678740E-03
   2.952000E-02     6.936900E-04
S 1 1.00
   1.193000E+01     1.000000E+00
S 1 1.00
   5.543000E+00     1.000000E+00
S 1 1.00
   2.675000E+00     1.000000E+00
S 1 1.00
   1.263000E+00     1.000000E+00
S 1 1.00
   5.883000E-01     1.000000E+00
S 1 1.00
   1.496000E-01     1.000000E+00
S 1 1.00
   6.700000E-02     1.000000E+00
S 1 1.00
   2.952000E-02     1.000000E+00
P 14 1.00
   1.441000E+03     1.524070E-04
   3.414000E+02     1.327640E-03
   1.107000E+02     7.219370E-03
   4.197000E+01     2.852050E-02
   1.749000E+01     8.653460E-02
   7.753000E+00     1.949500E-01
   3.534000E+00     3.120510E-01
   1.614000E+00     3.484760E-01
   7.299000E-01     2.188860E-01
   3.029000E-01     4.355790E-02
   1.583000E-01    -3.737470E-03
   8.190000E-02     3.051230E-03
   4.123000E-02    -8.669220E-04
   1.988000E-02     2.305170E-04
P 14 1.00
   1.441000E+03    -2.410310E-05
   3.414000E+02    -2.108090E-04
   1.107000E+02    -1.145300E-03
   4.197000E+01    -4.564170E-03
   1.749000E+01    -1.396030E-02
   7.753000E+00    -3.211050E-02
   3.534000E+00    -5.162170E-02
   1.614000E+00    -6.137130E-02
   7.299000E-01    -4.424650E-02
   3.029000E-01     5.231910E-02
   1.583000E-01     2.216920E-01
   8.190000E-02     3.952550E-01
   4.123000E-02     3.640780E-01
   1.988000E-02     9.779520E-02
P 1 1.00
   1.583000E-01     1.000000E+00
P 1 1.00
   8.190000E-02     1.000000E+00
P 1 1.00
   4.123000E-02     1.000000E+00
P 1 1.00
   1.988000E-02     1.000000E+00
P 1 1.00
   6.738800E+01     1.000000E+00
P 1 1.00
   2.475700E+01     1.000000E+00
P 1 1.00
   9.095100E+00     1.000000E+00
P 1 1.00
   3.341300E+00     1.000000E+00
D 1 1.00
   1.083700E+00     1.000000E+00
D 1 1.00
   4.968000E-01     1.000000E+00
D 1 1.00
   2.278000E-01     1.000000E+00
D 1 1.00
   1.044000E-01     1.000000E+00
D 1 1.00
   2.418400E+01     1.000000E+00
D 1 1.00
   1.142000E+01     1.000000E+00
D 1 1.00
   5.392900E+00     1.000000E+00
D 1 1.00
   2.546600E+00     1.000000E+00
F 1 1.00
   4.917000E-01     1.000000E+00
F 1 1.00
   2.764000E-01     1.000000E+00
F 1 1.00
   1.554000E-01     1.000000E+00
F 1 1.00
   1.316400E+01     1.000000E+00
F 1 1.00
   5.564200E+00     1.000000E+00
F 1 1.00
   2.351900E+00     1.000000E+00
G 1 1.00
   4.427000E-01     1.000000E+00
G 1 1.00
   2.311000E-01     1.000000E+00
G 1 1.00
   9.346800E+00     1.000000E+00
G 1 1.00
   3.516700E+00     1.000000E+00
H 1 1.00
   3.731000E-01     1.000000E+00
H 1 1.00
   6.718000E+00     1.000000E+00
S   1   1.00
      0.0108000              1.0000000
P   1   1.00
      0.0071000              1.0000000
D   1   1.00
      0.0371000              1.0000000
F   1   1.00
      0.0579000              1.0000000
G   1   1.00
      0.0947000              1.0000000
H   1   1.00
      0.1577000              1.0000000
****
$end

--------------------------------------------------------------
 ----------------------------------------------------------------
             Standard Nuclear Orientation (Angstroms)
    I     Atom           X                Y                Z
 ----------------------------------------------------------------
    1      Mg      0.0000000000     0.0000000000     0.0000000000
 ----------------------------------------------------------------
 Nuclear Repulsion Energy =     0.0000000000 hartrees
 There are        6 alpha and        6 beta electrons

 Q-Chem warning in module forms1/BasisType.C, line 1703:

 Setting pure/cartesian flag to 2111 for general basis


 Requested basis set is non-standard
 There are 46 shells and 246 basis functions

 Total QAlloc Memory Limit 128000 MB
 Mega-Array Size      1467 MB
 MEM_STATIC part      1500 MB
 Requested basis set is rimp2-cc-pVQZ
 There are 38 shells and 168 basis functions
 A cutoff of  1.0D-14 yielded   1081 shell pairs
 There are     31461 function pairs (     48609 Cartesian)
 
 -------------------------------------------------------
 OpenMP Integral Computing Module                       
 Release: version 1.0, May 2013, Q-Chem Inc. Pittsburgh 
 -------------------------------------------------------
 Integral Job Info:
 Integral job number is                      11
 Integral operator is                         1
 short-range coefficients                     0
 long-range coefficients              100000000
 Omega coefficients                           0
 if combine SR and LR in K                    0
 Integral screening is                        0
 Integral computing path is                   2
 max size of driver memory is           6400000
 size of driver memory is               5498286
 size of scratch memory is             21126762
 max col of scratch BK array             194481
 max len of scratch array in speh3         5572
 max len of scratch index in speh4           72
 max int batch size is                      520
 min int batch size is                       52
 fixed nKL is                                 2
 max L of basis functions is                  5
 order of int derivative is                   0
 number of shells is                         46
 number of basis is                         306
 number of cartesian basis is               306
 number of contracted shell pairs          1081
 number of primitive shell pairs           6667
 maxK2 (contraction) of shell pair          400
 max number of K2 of shell pair               1
 max number of CS2 of shell pair             81
 max number of PS2 of shell pair           1200
 mem total for path MDJ                  876929
 -------------------------------------------------------
 Smallest overlap matrix eigenvalue = 9.28E-06

 Scale SEOQF with 1.000000e-02/1.000000e-02/1.000000e-02

 Standard Electronic Orientation quadrupole field applied
 Guess MOs from core Hamiltonian diagonalization
 A restricted hybrid HF-DFT SCF calculation will be
 performed using Geometric Direct Minimization
 Exchange:     0.2000 Hartree-Fock + 0.0800 Slater + 0.7200 B88
 Correlation:  0.1900 VWN1RPA + 0.8100 LYP
 Using Euler-Maclaurin-Lebedev (99,590) quadrature formula
 SCF converges when RMS gradient is below 1.0E-08
 using 8 threads for integral computing
 -------------------------------------------------------
 OpenMP Integral computing Module                
 Release: version 2.0, May 2017, Q-Chem Inc. Pleasanton 
 -------------------------------------------------------
 LTot/LBra/LKet=          20          10          10
 LTot/LBra/LKet=          20          10          10

 Q-Chem warning:

 in GenH1, ket side, handled with new code

 LTot/LBra/LKet=          19           9          10
 LTot/LBra/LKet=          19           9          10
 LTot/LBra/LKet=          19           9          10

 Q-Chem warning:

 in GenH1, ket side, handled with new code


 Q-Chem warning:

 in GenH1, ket side, handled with new code

 LTot/LBra/LKet=          20          10          10

 Q-Chem warning:

 in GenH1, ket side, handled with new code


 Q-Chem warning:

 in GenH1, ket side, handled with new code

 LTot/LBra/LKet=          19           9          10

 Q-Chem warning:

 in GenH1, ket side, handled with new code

 LTot/LBra/LKet=          19           9          10

 Q-Chem warning:

 in GenH1, ket side, handled with new code


 Q-Chem warning:

 in GenH1, ket side, handled with new code

 LTot/LBra/LBra=          20          10          10

 Q-Chem warning:

 in GenH1, bra side, handled with new code

TIMEINFO->: J/JK contribution 264.99 sec.
 -------------------------------------------------------
 OpenMP BLAS3 based DFT computing Module                
 Release: version 1.0, May 2013, Q-Chem Inc. Pittsburgh 
 -------------------------------------------------------
 ---------------------------------------
  Cycle       Energy        RMS Gradient
 ---------------------------------------
    1    -177.7936691887      8.36E+00 Descent step
TIMEINFO->: J/JK contribution 292.30 sec.
    2    -183.9546378683      1.84E+00 Descent step
TIMEINFO->: J/JK contribution 310.48 sec.
    3    -187.5242388265      1.47E+00 Descent step
TIMEINFO->: J/JK contribution 346.22 sec.
    4    -190.5065709469      1.14E+00 Descent step
TIMEINFO->: J/JK contribution 324.08 sec.
    5    -193.0129200554      1.26E+00 Descent step
TIMEINFO->: J/JK contribution 324.18 sec.
    6    -195.0023711690      2.21E+00 Descent step
TIMEINFO->: J/JK contribution 320.59 sec.
    7    -196.8700733330      9.25E-01 Descent step
TIMEINFO->: J/JK contribution 340.44 sec.
    8    -197.9929277146      5.96E-01 Descent step
TIMEINFO->: J/JK contribution 320.43 sec.
    9    -198.8833344152      5.66E-01 Descent step
TIMEINFO->: J/JK contribution 307.54 sec.
   10    -199.5413916888      4.08E-01 Descent step
TIMEINFO->: J/JK contribution 314.25 sec.
   11    -199.9476748968      1.33E-01 Descent step
TIMEINFO->: J/JK contribution 328.22 sec.
   12    -200.0991233564      2.25E-02 Normal BFGS step
TIMEINFO->: J/JK contribution 295.45 sec.
   13    -200.1033783378      4.04E-03 Normal BFGS step
TIMEINFO->: J/JK contribution 300.50 sec.
   14    -200.1034263965      2.12E-03 Normal BFGS step
TIMEINFO->: J/JK contribution 308.71 sec.
   15    -200.1034484251      9.27E-04 Normal BFGS step
TIMEINFO->: J/JK contribution 297.95 sec.
   16    -200.1034517541      7.26E-04 Normal BFGS step
TIMEINFO->: J/JK contribution 270.59 sec.
   17    -200.1034533861      2.81E-04 Normal BFGS step
TIMEINFO->: J/JK contribution 264.83 sec.
   18    -200.1034534496      2.63E-04 Normal BFGS step
TIMEINFO->: J/JK contribution 262.61 sec.
   19    -200.1034535889      4.82E-05 Normal BFGS step
TIMEINFO->: J/JK contribution 284.29 sec.
   20    -200.1034536014      4.29E-05 Normal BFGS step
TIMEINFO->: J/JK contribution 269.04 sec.
   21    -200.1034536076      5.24E-06 Normal BFGS step
TIMEINFO->: J/JK contribution 231.77 sec.
   22    -200.1034536076      1.16E-06 Normal BFGS step
TIMEINFO->: J/JK contribution 228.03 sec.
   23    -200.1034536076      1.24E-07 Normal BFGS step
TIMEINFO->: J/JK contribution 224.27 sec.
   GDM::WARNING energy changes are now smaller than effective accuracy.
   GDM::        calculation will continue, but THRESH should be increased
   GDM::        or SCF_CONVERGENCE decreased.
   GDM::        effective_thresh =   8.619150532185316E-010
   24    -200.1034536076      1.50E-08 Normal BFGS step
TIMEINFO->: J/JK contribution 201.67 sec.
   25    -200.1034536076      8.20E-10 Convergence criterion met
 ---------------------------------------
 B3LYP orbitals are now ready for the XYGJ-OS calculation.
 XYGJ-OS energy = Exch (0.7731 HF  + 0.2269 Slater) + 
                  Corr (0.2754 LYP + 0.2309 VWN1RPA + 0.4364 OS-MP2)
 SCF time:  CPU 7341.64 s  wall 923.88 s
 SCF   energy in the final basis set = -199.68542130
 Total energy in the final basis set = -199.68542130
 Entering Scaled Opposite Spin MP2
 NBasAux in rimp2.F =          168

 OS-MP2 job begins now...

 SOS scaling factor =  0.4
 Form (P|Q)**(-1/2)...

 Q-Chem fatal error occurred in module libmdc/qalloc.C, line 49:

 Illegal memory length in mega_alloc


 Please submit a crash report at q-chem.com/reporter 
 
 
 
User input: 2 of 7 
 
Q-Chem Developer Version!
                  Welcome to Q-Chem
     A Quantum Leap Into The Future Of Chemistry


 Q-Chem 5.1, Q-Chem, Inc., Pleasanton, CA (2018)

 Yihan Shao,  Zhengting Gan,  E. Epifanovsky,  A. T. B. Gilbert,  M. Wormit,  
 J. Kussmann,  A. W. Lange,  A. Behn,  Jia Deng,  Xintian Feng,  D. Ghosh,  
 M. Goldey,  P. R. Horn,  L. D. Jacobson,  I. Kaliman,  T. Kus,  A. Landau,  
 Jie Liu,  E. I. Proynov,  R. M. Richard,  R. P. Steele,  E. J. Sundstrom,  
 H. L. Woodcock III,  P. M. Zimmerman,  D. Zuev,  B. Albrecht,  E. Alguire,  
 S. A. Baeppler,  D. Barton,  Z. Benda,  Y. A. Bernard,  E. J. Berquist,  
 K. B. Bravaya,  H. Burton,  D. Casanova,  Chun-Min Chang,  Yunqing Chen,  
 A. Chien,  K. D. Closser,  M. P. Coons,  S. Coriani,  S. Dasgupta,  
 A. L. Dempwolff,  M. Diedenhofen,  Hainam Do,  R. G. Edgar,  Po-Tung Fang,  
 S. Faraji,  S. Fatehi,  Qingguo Feng,  K. D. Fenk,  J. Fosso-Tande,  
 Qinghui Ge,  A. Ghysels,  G. Gidofalvi,  J. Gomes,  J. Gonthier,  A. Gunina,  
 D. Hait,  M. W. D. Hanson-Heine,  P. H. P. Harbach,  A. W. Hauser,  
 J. E. Herr,  E. G. Hohenstein,  Z. C. Holden,  Kerwin Hui,  B. C. Huynh,  
 T.-C. Jagau,  Hyunjun Ji,  B. Kaduk,  K. Khistyaev,  Jaehoon Kim,  
 P. Klunzinger,  K. Koh,  D. Kosenkov,  L. Koulias,  T. Kowalczyk,  
 C. M. Krauter,  A. Kunitsa,  Ka Un Lao,  A. Laurent,  K. V. Lawler,  
 Joonho Lee,  D. Lefrancois,  S. Lehtola,  D. S. Levine,  Yi-Pei Li,  
 You-Sheng Lin,  Fenglai Liu,  E. Livshits,  A. Luenser,  P. Manohar,  
 E. Mansoor,  S. F. Manzer,  Shan-Ping Mao,  Yuezhi Mao,  N. Mardirossian,  
 A. V. Marenich,  T. Markovich,  L. A. Martinez-Martinez,  S. A. Maurer,  
 N. J. Mayhall,  S. C. McKenzie,  J.-M. Mewes,  A. F. Morrison,  
 J. W. Mullinax,  K. Nanda,  T. S. Nguyen-Beck,  R. Olivares-Amaya,  
 J. A. Parkhill,  T. M. Perrine,  F. Plasser,  P. Pokhilko,  S. Prager,  
 A. Prociuk,  E. Ramos,  D. R. Rehn,  F. Rob,  M. Schneider,  N. Sergueev,  
 S. M. Sharada,  S. Sharma,  D. W. Small,  T. Stauch,  T. Stein,  
 Yu-Chuan Su,  A. J. W. Thom,  A. Tkatchenko,  T. Tsuchimochi,  N. M. Tubman,  
 L. Vogt,  M. L. Vidal,  O. Vydrov,  M. A. Watson,  J. Wenzel,  
 M. de Wergifosse,  T. A. Wesolowski,  A. White,  J. Witte,  A. Yamada,  
 Jun Yang,  K. Yao,  S. Yeganeh,  S. R. Yost,  Zhi-Qiang You,  A. Zech,  
 Igor Ying Zhang,  Xing Zhang,  Yan Zhao,  Ying Zhu,  B. R. Brooks,  
 G. K. L. Chan,  C. J. Cramer,  M. S. Gordon,  W. J. Hehre,  A. Klamt,  
 M. W. Schmidt,  C. D. Sherrill,  D. G. Truhlar,  A. Aspuru-Guzik,  R. Baer,  
 A. T. Bell,  N. A. Besley,  Jeng-Da Chai,  A. E. DePrince, III,  
 R. A. DiStasio Jr.,  A. Dreuw,  B. D. Dunietz,  T. R. Furlani,  
 Chao-Ping Hsu,  Yousung Jung,  Jing Kong,  D. S. Lambrecht,  WanZhen Liang,  
 C. Ochsenfeld,  V. A. Rassolov,  L. V. Slipchenko,  J. E. Subotnik,  
 T. Van Voorhis,  J. M. Herbert,  A. I. Krylov,  P. M. W. Gill,  M. Head-Gordon

 Contributors to earlier versions of Q-Chem not listed above: 
 R. D. Adamson,  B. Austin,  J. Baker,  G. J. O. Beran,  K. Brandhorst,  
 S. T. Brown,  E. F. C. Byrd,  A. K. Chakraborty,  C.-L. Cheng,  
 Siu Hung Chien,  D. M. Chipman,  D. L. Crittenden,  H. Dachsel,  
 R. J. Doerksen,  A. D. Dutoi,  L. Fusti-Molnar,  W. A. Goddard III,  
 A. Golubeva-Zadorozhnaya,  S. R. Gwaltney,  G. Hawkins,  A. Heyden,  
 S. Hirata,  G. Kedziora,  F. J. Keil,  C. Kelley,  Jihan Kim,  R. A. King,  
 R. Z. Khaliullin,  P. P. Korambath,  W. Kurlancheek,  A. M. Lee,  M. S. Lee,  
 S. V. Levchenko,  Ching Yeh Lin,  D. Liotard,  R. C. Lochan,  I. Lotan,  
 P. E. Maslen,  N. Nair,  D. P. O'Neill,  D. Neuhauser,  E. Neuscamman,  
 C. M. Oana,  R. Olson,  B. Peters,  R. Peverati,  P. A. Pieniazek,  
 Y. M. Rhee,  J. Ritchie,  M. A. Rohrdanz,  E. Rosta,  N. J. Russ,  
 H. F. Schaefer III,  N. E. Schultz,  N. Shenvi,  A. C. Simmonett,  A. Sodt,  
 D. Stuck,  K. S. Thanthiriwatte,  V. Vanovschi,  Tao Wang,  A. Warshel,  
 C. F. Williams,  Q. Wu,  X. Xu,  W. Zhang

 Please cite Q-Chem as follows:
 Y. Shao et al., Mol. Phys. 113, 184-215 (2015)
 DOI: 10.1080/00268976.2014.952696

 Q-Chem 5.1.1 for Intel X86 EM64T Linux

 Parts of Q-Chem use Armadillo 8.300.2 (Tropical Shenanigans).
 http://arma.sourceforge.net/

 Q-Chem begins on Fri Oct 23 19:58:45 2020  

Host: n0054.mhg0
0

     Scratch files written to /local/scratch/users/yhljason/Mg_XYGJOS_aug-cc-pcV5Z.inp20201023194314//
The previous job contains 0 fragments, simply inherited here
Input Ideriv = 2
Curr. Ideriv = -1
Max.  Ideriv = 2

Checking the input file for inconsistencies... 	...done.

--------------------------------------------------------------
User input:
--------------------------------------------------------------
$molecule
read
$end

$rem

jobtype sp
exchange XYGJOS
xc_grid 000099000590
basis gen
aux_basis rimp2-cc-pVQZ
max_scf_cycles 200
thresh 14
scf_convergence 8
mem_total 128000
cc_memory 96000
cc_backend xm
mem_static 1500
symmetry false
sym_ignore true
scf_guess read
unrestricted false
scf_algorithm gdm
n_frozen_core 1000
$end

$basis
****
Mg     0
S 20 1.00
   2.968000E+06     1.971770E-06
   4.443000E+05     1.533620E-05
   1.011000E+05     8.068520E-05
   2.864000E+04     3.407710E-04
   9.343000E+03     1.241940E-03
   3.373000E+03     4.041240E-03
   1.316000E+03     1.197970E-02
   5.458000E+02     3.242530E-02
   2.381000E+02     7.893320E-02
   1.082000E+02     1.665750E-01
   5.080000E+01     2.828710E-01
   2.448000E+01     3.318900E-01
   1.193000E+01     2.032870E-01
   5.543000E+00     3.828970E-02
   2.675000E+00     3.089160E-04
   1.263000E+00     1.389070E-03
   5.883000E-01    -1.361590E-04
   1.496000E-01     8.553220E-05
   6.700000E-02    -5.691020E-05
   2.952000E-02     1.772590E-05
S 20 1.00
   2.968000E+06    -4.981600E-07
   4.443000E+05    -3.875630E-06
   1.011000E+05    -2.038540E-05
   2.864000E+04    -8.616590E-05
   9.343000E+03    -3.141760E-04
   3.373000E+03    -1.025770E-03
   1.316000E+03    -3.058160E-03
   5.458000E+02    -8.410630E-03
   2.381000E+02    -2.112020E-02
   1.082000E+02    -4.768820E-02
   5.080000E+01    -9.241190E-02
   2.448000E+01    -1.425480E-01
   1.193000E+01    -1.261680E-01
   5.543000E+00     7.152820E-02
   2.675000E+00     3.830390E-01
   1.263000E+00     4.901330E-01
   5.883000E-01     2.043810E-01
   1.496000E-01     7.022310E-03
   6.700000E-02    -2.678740E-03
   2.952000E-02     6.936900E-04
S 1 1.00
   1.193000E+01     1.000000E+00
S 1 1.00
   5.543000E+00     1.000000E+00
S 1 1.00
   2.675000E+00     1.000000E+00
S 1 1.00
   1.263000E+00     1.000000E+00
S 1 1.00
   5.883000E-01     1.000000E+00
S 1 1.00
   1.496000E-01     1.000000E+00
S 1 1.00
   6.700000E-02     1.000000E+00
S 1 1.00
   2.952000E-02     1.000000E+00
P 14 1.00
   1.441000E+03     1.524070E-04
   3.414000E+02     1.327640E-03
   1.107000E+02     7.219370E-03
   4.197000E+01     2.852050E-02
   1.749000E+01     8.653460E-02
   7.753000E+00     1.949500E-01
   3.534000E+00     3.120510E-01
   1.614000E+00     3.484760E-01
   7.299000E-01     2.188860E-01
   3.029000E-01     4.355790E-02
   1.583000E-01    -3.737470E-03
   8.190000E-02     3.051230E-03
   4.123000E-02    -8.669220E-04
   1.988000E-02     2.305170E-04
P 14 1.00
   1.441000E+03    -2.410310E-05
   3.414000E+02    -2.108090E-04
   1.107000E+02    -1.145300E-03
   4.197000E+01    -4.564170E-03
   1.749000E+01    -1.396030E-02
   7.753000E+00    -3.211050E-02
   3.534000E+00    -5.162170E-02
   1.614000E+00    -6.137130E-02
   7.299000E-01    -4.424650E-02
   3.029000E-01     5.231910E-02
   1.583000E-01     2.216920E-01
   8.190000E-02     3.952550E-01
   4.123000E-02     3.640780E-01
   1.988000E-02     9.779520E-02
P 1 1.00
   1.583000E-01     1.000000E+00
P 1 1.00
   8.190000E-02     1.000000E+00
P 1 1.00
   4.123000E-02     1.000000E+00
P 1 1.00
   1.988000E-02     1.000000E+00
P 1 1.00
   6.738800E+01     1.000000E+00
P 1 1.00
   2.475700E+01     1.000000E+00
P 1 1.00
   9.095100E+00     1.000000E+00
P 1 1.00
   3.341300E+00     1.000000E+00
D 1 1.00
   1.083700E+00     1.000000E+00
D 1 1.00
   4.968000E-01     1.000000E+00
D 1 1.00
   2.278000E-01     1.000000E+00
D 1 1.00
   1.044000E-01     1.000000E+00
D 1 1.00
   2.418400E+01     1.000000E+00
D 1 1.00
   1.142000E+01     1.000000E+00
D 1 1.00
   5.392900E+00     1.000000E+00
D 1 1.00
   2.546600E+00     1.000000E+00
F 1 1.00
   4.917000E-01     1.000000E+00
F 1 1.00
   2.764000E-01     1.000000E+00
F 1 1.00
   1.554000E-01     1.000000E+00
F 1 1.00
   1.316400E+01     1.000000E+00
F 1 1.00
   5.564200E+00     1.000000E+00
F 1 1.00
   2.351900E+00     1.000000E+00
G 1 1.00
   4.427000E-01     1.000000E+00
G 1 1.00
   2.311000E-01     1.000000E+00
G 1 1.00
   9.346800E+00     1.000000E+00
G 1 1.00
   3.516700E+00     1.000000E+00
H 1 1.00
   3.731000E-01     1.000000E+00
H 1 1.00
   6.718000E+00     1.000000E+00
S   1   1.00
      0.0108000              1.0000000
P   1   1.00
      0.0071000              1.0000000
D   1   1.00
      0.0371000              1.0000000
F   1   1.00
      0.0579000              1.0000000
G   1   1.00
      0.0947000              1.0000000
H   1   1.00
      0.1577000              1.0000000
****
$end

$multipole_field
XX 0.0001
$end


--------------------------------------------------------------
 ----------------------------------------------------------------
             Standard Nuclear Orientation (Angstroms)
    I     Atom           X                Y                Z
 ----------------------------------------------------------------
    1      Mg      0.0000000000     0.0000000000     0.0000000000
 ----------------------------------------------------------------
 Nuclear Repulsion Energy =     0.0000000000 hartrees
 There are        6 alpha and        6 beta electrons

 Q-Chem warning in module forms1/BasisType.C, line 1703:

 Setting pure/cartesian flag to 2111 for general basis


 Requested basis set is non-standard
 There are 46 shells and 246 basis functions

 Total QAlloc Memory Limit 128000 MB
 Mega-Array Size      1467 MB
 MEM_STATIC part      1500 MB
 Applying Cartesian multipole field
    Component          Value
    ---------          -----
     (2,0,0)        1.00000E-04
 Requested basis set is rimp2-cc-pVQZ
 There are 38 shells and 168 basis functions
 A cutoff of  1.0D-14 yielded   1081 shell pairs
 There are     31461 function pairs (     48609 Cartesian)
 
 -------------------------------------------------------
 OpenMP Integral Computing Module                       
 Release: version 1.0, May 2013, Q-Chem Inc. Pittsburgh 
 -------------------------------------------------------
 Integral Job Info:
 Integral job number is                      11
 Integral operator is                         1
 short-range coefficients                     0
 long-range coefficients              100000000
 Omega coefficients                           0
 if combine SR and LR in K                    0
 Integral screening is                        0
 Integral computing path is                   2
 max size of driver memory is           6400000
 size of driver memory is               5498286
 size of scratch memory is             21126762
 max col of scratch BK array             194481
 max len of scratch array in speh3         5572
 max len of scratch index in speh4           72
 max int batch size is                      520
 min int batch size is                       52
 fixed nKL is                                 2
 max L of basis functions is                  5
 order of int derivative is                   0
 number of shells is                         46
 number of basis is                         306
 number of cartesian basis is               306
 number of contracted shell pairs          1081
 number of primitive shell pairs           6667
 maxK2 (contraction) of shell pair          400
 max number of K2 of shell pair               1
 max number of CS2 of shell pair             81
 max number of PS2 of shell pair           1200
 mem total for path MDJ                  876929
 -------------------------------------------------------
 Smallest overlap matrix eigenvalue = 9.28E-06
 Guess MOs from SCF MO coefficient file
 Reading MOs from coefficient file
 Reading MOs from coefficient file
 A restricted hybrid HF-DFT SCF calculation will be
 performed using Geometric Direct Minimization
 Exchange:     0.2000 Hartree-Fock + 0.0800 Slater + 0.7200 B88
 Correlation:  0.1900 VWN1RPA + 0.8100 LYP
 Using Euler-Maclaurin-Lebedev (99,590) quadrature formula
 SCF converges when RMS gradient is below 1.0E-08
Using Q-Chem read-in guess as SCF_GUESS READ specified.

 using 8 threads for integral computing
 -------------------------------------------------------
 OpenMP Integral computing Module                
 Release: version 2.0, May 2017, Q-Chem Inc. Pleasanton 
 -------------------------------------------------------
 LTot/LBra/LKet=          20          10          10
 LTot/LBra/LKet=          19           9          10
 LTot/LBra/LKet=          20          10          10
 LTot/LBra/LKet=          20          10          10

 Q-Chem warning:

 in GenH1, ket side, handled with new code

 LTot/LBra/LKet=          19           9          10

 Q-Chem warning:

 in GenH1, ket side, handled with new code


 Q-Chem warning:

 in GenH1, ket side, handled with new code

 LTot/LBra/LKet=          19           9          10
 LTot/LBra/LKet=          19           9          10
 LTot/LBra/LKet=          19           9          10

 Q-Chem warning:

 in GenH1, ket side, handled with new code


 Q-Chem warning:

 in GenH1, ket side, handled with new code


 Q-Chem warning:

 in GenH1, ket side, handled with new code


 Q-Chem warning:

 in GenH1, ket side, handled with new code


 Q-Chem warning:

 in GenH1, ket side, handled with new code

 LTot/LBra/LBra=          20          10          10

 Q-Chem warning:

 in GenH1, bra side, handled with new code

TIMEINFO->: J/JK contribution 296.56 sec.
 -------------------------------------------------------
 OpenMP BLAS3 based DFT computing Module                
 Release: version 1.0, May 2013, Q-Chem Inc. Pittsburgh 
 -------------------------------------------------------
 ---------------------------------------
  Cycle       Energy        RMS Gradient
 ---------------------------------------
    1    -200.1043921030      1.23E-03 Normal BFGS step
TIMEINFO->: J/JK contribution 351.85 sec.
    2    -200.1043949789      2.06E-04 Normal BFGS step
TIMEINFO->: J/JK contribution 349.43 sec.
    3    -200.1043950529      2.29E-05 Normal BFGS step
TIMEINFO->: J/JK contribution 352.57 sec.
    4    -200.1043950588      9.10E-06 Normal BFGS step
TIMEINFO->: J/JK contribution 330.19 sec.
    5    -200.1043950595      1.27E-06 Normal BFGS step
TIMEINFO->: J/JK contribution 302.26 sec.
    6    -200.1043950596      8.39E-08 Normal BFGS step
TIMEINFO->: J/JK contribution 266.58 sec.
   GDM::WARNING energy changes are now smaller than effective accuracy.
   GDM::        calculation will continue, but THRESH should be increased
   GDM::        or SCF_CONVERGENCE decreased.
   GDM::        effective_thresh =   6.000000000000000E-011
    7    -200.1043950596      3.71E-09 Convergence criterion met
 ---------------------------------------
 B3LYP orbitals are now ready for the XYGJ-OS calculation.
 XYGJ-OS energy = Exch (0.7731 HF  + 0.2269 Slater) + 
                  Corr (0.2754 LYP + 0.2309 VWN1RPA + 0.4364 OS-MP2)
 SCF time:  CPU 2281.78 s  wall 287.11 s
 SCF   energy in the final basis set = -199.68638588
 Total energy in the final basis set = -199.68638588
 Entering Scaled Opposite Spin MP2
 NBasAux in rimp2.F =          168

 OS-MP2 job begins now...

 SOS scaling factor =  0.4
 Form (P|Q)**(-1/2)...

 Q-Chem fatal error occurred in module libmdc/qalloc.C, line 49:

 Illegal memory length in mega_alloc


 Please submit a crash report at q-chem.com/reporter 
 
 
 
User input: 3 of 7 
 
Q-Chem Developer Version!
                  Welcome to Q-Chem
     A Quantum Leap Into The Future Of Chemistry


 Q-Chem 5.1, Q-Chem, Inc., Pleasanton, CA (2018)

 Yihan Shao,  Zhengting Gan,  E. Epifanovsky,  A. T. B. Gilbert,  M. Wormit,  
 J. Kussmann,  A. W. Lange,  A. Behn,  Jia Deng,  Xintian Feng,  D. Ghosh,  
 M. Goldey,  P. R. Horn,  L. D. Jacobson,  I. Kaliman,  T. Kus,  A. Landau,  
 Jie Liu,  E. I. Proynov,  R. M. Richard,  R. P. Steele,  E. J. Sundstrom,  
 H. L. Woodcock III,  P. M. Zimmerman,  D. Zuev,  B. Albrecht,  E. Alguire,  
 S. A. Baeppler,  D. Barton,  Z. Benda,  Y. A. Bernard,  E. J. Berquist,  
 K. B. Bravaya,  H. Burton,  D. Casanova,  Chun-Min Chang,  Yunqing Chen,  
 A. Chien,  K. D. Closser,  M. P. Coons,  S. Coriani,  S. Dasgupta,  
 A. L. Dempwolff,  M. Diedenhofen,  Hainam Do,  R. G. Edgar,  Po-Tung Fang,  
 S. Faraji,  S. Fatehi,  Qingguo Feng,  K. D. Fenk,  J. Fosso-Tande,  
 Qinghui Ge,  A. Ghysels,  G. Gidofalvi,  J. Gomes,  J. Gonthier,  A. Gunina,  
 D. Hait,  M. W. D. Hanson-Heine,  P. H. P. Harbach,  A. W. Hauser,  
 J. E. Herr,  E. G. Hohenstein,  Z. C. Holden,  Kerwin Hui,  B. C. Huynh,  
 T.-C. Jagau,  Hyunjun Ji,  B. Kaduk,  K. Khistyaev,  Jaehoon Kim,  
 P. Klunzinger,  K. Koh,  D. Kosenkov,  L. Koulias,  T. Kowalczyk,  
 C. M. Krauter,  A. Kunitsa,  Ka Un Lao,  A. Laurent,  K. V. Lawler,  
 Joonho Lee,  D. Lefrancois,  S. Lehtola,  D. S. Levine,  Yi-Pei Li,  
 You-Sheng Lin,  Fenglai Liu,  E. Livshits,  A. Luenser,  P. Manohar,  
 E. Mansoor,  S. F. Manzer,  Shan-Ping Mao,  Yuezhi Mao,  N. Mardirossian,  
 A. V. Marenich,  T. Markovich,  L. A. Martinez-Martinez,  S. A. Maurer,  
 N. J. Mayhall,  S. C. McKenzie,  J.-M. Mewes,  A. F. Morrison,  
 J. W. Mullinax,  K. Nanda,  T. S. Nguyen-Beck,  R. Olivares-Amaya,  
 J. A. Parkhill,  T. M. Perrine,  F. Plasser,  P. Pokhilko,  S. Prager,  
 A. Prociuk,  E. Ramos,  D. R. Rehn,  F. Rob,  M. Schneider,  N. Sergueev,  
 S. M. Sharada,  S. Sharma,  D. W. Small,  T. Stauch,  T. Stein,  
 Yu-Chuan Su,  A. J. W. Thom,  A. Tkatchenko,  T. Tsuchimochi,  N. M. Tubman,  
 L. Vogt,  M. L. Vidal,  O. Vydrov,  M. A. Watson,  J. Wenzel,  
 M. de Wergifosse,  T. A. Wesolowski,  A. White,  J. Witte,  A. Yamada,  
 Jun Yang,  K. Yao,  S. Yeganeh,  S. R. Yost,  Zhi-Qiang You,  A. Zech,  
 Igor Ying Zhang,  Xing Zhang,  Yan Zhao,  Ying Zhu,  B. R. Brooks,  
 G. K. L. Chan,  C. J. Cramer,  M. S. Gordon,  W. J. Hehre,  A. Klamt,  
 M. W. Schmidt,  C. D. Sherrill,  D. G. Truhlar,  A. Aspuru-Guzik,  R. Baer,  
 A. T. Bell,  N. A. Besley,  Jeng-Da Chai,  A. E. DePrince, III,  
 R. A. DiStasio Jr.,  A. Dreuw,  B. D. Dunietz,  T. R. Furlani,  
 Chao-Ping Hsu,  Yousung Jung,  Jing Kong,  D. S. Lambrecht,  WanZhen Liang,  
 C. Ochsenfeld,  V. A. Rassolov,  L. V. Slipchenko,  J. E. Subotnik,  
 T. Van Voorhis,  J. M. Herbert,  A. I. Krylov,  P. M. W. Gill,  M. Head-Gordon

 Contributors to earlier versions of Q-Chem not listed above: 
 R. D. Adamson,  B. Austin,  J. Baker,  G. J. O. Beran,  K. Brandhorst,  
 S. T. Brown,  E. F. C. Byrd,  A. K. Chakraborty,  C.-L. Cheng,  
 Siu Hung Chien,  D. M. Chipman,  D. L. Crittenden,  H. Dachsel,  
 R. J. Doerksen,  A. D. Dutoi,  L. Fusti-Molnar,  W. A. Goddard III,  
 A. Golubeva-Zadorozhnaya,  S. R. Gwaltney,  G. Hawkins,  A. Heyden,  
 S. Hirata,  G. Kedziora,  F. J. Keil,  C. Kelley,  Jihan Kim,  R. A. King,  
 R. Z. Khaliullin,  P. P. Korambath,  W. Kurlancheek,  A. M. Lee,  M. S. Lee,  
 S. V. Levchenko,  Ching Yeh Lin,  D. Liotard,  R. C. Lochan,  I. Lotan,  
 P. E. Maslen,  N. Nair,  D. P. O'Neill,  D. Neuhauser,  E. Neuscamman,  
 C. M. Oana,  R. Olson,  B. Peters,  R. Peverati,  P. A. Pieniazek,  
 Y. M. Rhee,  J. Ritchie,  M. A. Rohrdanz,  E. Rosta,  N. J. Russ,  
 H. F. Schaefer III,  N. E. Schultz,  N. Shenvi,  A. C. Simmonett,  A. Sodt,  
 D. Stuck,  K. S. Thanthiriwatte,  V. Vanovschi,  Tao Wang,  A. Warshel,  
 C. F. Williams,  Q. Wu,  X. Xu,  W. Zhang

 Please cite Q-Chem as follows:
 Y. Shao et al., Mol. Phys. 113, 184-215 (2015)
 DOI: 10.1080/00268976.2014.952696

 Q-Chem 5.1.1 for Intel X86 EM64T Linux

 Parts of Q-Chem use Armadillo 8.300.2 (Tropical Shenanigans).
 http://arma.sourceforge.net/

 Q-Chem begins on Fri Oct 23 20:03:37 2020  

Host: n0054.mhg0
0

     Scratch files written to /local/scratch/users/yhljason/Mg_XYGJOS_aug-cc-pcV5Z.inp20201023194314//
The previous job contains 0 fragments, simply inherited here
Input Ideriv = 2
Curr. Ideriv = -1
Max.  Ideriv = 2

Checking the input file for inconsistencies... 	...done.

--------------------------------------------------------------
User input:
--------------------------------------------------------------
$molecule
read
$end

$rem

jobtype sp
exchange XYGJOS
xc_grid 000099000590
basis gen
aux_basis rimp2-cc-pVQZ
max_scf_cycles 200
thresh 14
scf_convergence 8
mem_total 128000
cc_memory 96000
cc_backend xm
mem_static 1500
symmetry false
sym_ignore true
scf_guess read
unrestricted false
scf_algorithm gdm
n_frozen_core 1000
$end

$basis
****
Mg     0
S 20 1.00
   2.968000E+06     1.971770E-06
   4.443000E+05     1.533620E-05
   1.011000E+05     8.068520E-05
   2.864000E+04     3.407710E-04
   9.343000E+03     1.241940E-03
   3.373000E+03     4.041240E-03
   1.316000E+03     1.197970E-02
   5.458000E+02     3.242530E-02
   2.381000E+02     7.893320E-02
   1.082000E+02     1.665750E-01
   5.080000E+01     2.828710E-01
   2.448000E+01     3.318900E-01
   1.193000E+01     2.032870E-01
   5.543000E+00     3.828970E-02
   2.675000E+00     3.089160E-04
   1.263000E+00     1.389070E-03
   5.883000E-01    -1.361590E-04
   1.496000E-01     8.553220E-05
   6.700000E-02    -5.691020E-05
   2.952000E-02     1.772590E-05
S 20 1.00
   2.968000E+06    -4.981600E-07
   4.443000E+05    -3.875630E-06
   1.011000E+05    -2.038540E-05
   2.864000E+04    -8.616590E-05
   9.343000E+03    -3.141760E-04
   3.373000E+03    -1.025770E-03
   1.316000E+03    -3.058160E-03
   5.458000E+02    -8.410630E-03
   2.381000E+02    -2.112020E-02
   1.082000E+02    -4.768820E-02
   5.080000E+01    -9.241190E-02
   2.448000E+01    -1.425480E-01
   1.193000E+01    -1.261680E-01
   5.543000E+00     7.152820E-02
   2.675000E+00     3.830390E-01
   1.263000E+00     4.901330E-01
   5.883000E-01     2.043810E-01
   1.496000E-01     7.022310E-03
   6.700000E-02    -2.678740E-03
   2.952000E-02     6.936900E-04
S 1 1.00
   1.193000E+01     1.000000E+00
S 1 1.00
   5.543000E+00     1.000000E+00
S 1 1.00
   2.675000E+00     1.000000E+00
S 1 1.00
   1.263000E+00     1.000000E+00
S 1 1.00
   5.883000E-01     1.000000E+00
S 1 1.00
   1.496000E-01     1.000000E+00
S 1 1.00
   6.700000E-02     1.000000E+00
S 1 1.00
   2.952000E-02     1.000000E+00
P 14 1.00
   1.441000E+03     1.524070E-04
   3.414000E+02     1.327640E-03
   1.107000E+02     7.219370E-03
   4.197000E+01     2.852050E-02
   1.749000E+01     8.653460E-02
   7.753000E+00     1.949500E-01
   3.534000E+00     3.120510E-01
   1.614000E+00     3.484760E-01
   7.299000E-01     2.188860E-01
   3.029000E-01     4.355790E-02
   1.583000E-01    -3.737470E-03
   8.190000E-02     3.051230E-03
   4.123000E-02    -8.669220E-04
   1.988000E-02     2.305170E-04
P 14 1.00
   1.441000E+03    -2.410310E-05
   3.414000E+02    -2.108090E-04
   1.107000E+02    -1.145300E-03
   4.197000E+01    -4.564170E-03
   1.749000E+01    -1.396030E-02
   7.753000E+00    -3.211050E-02
   3.534000E+00    -5.162170E-02
   1.614000E+00    -6.137130E-02
   7.299000E-01    -4.424650E-02
   3.029000E-01     5.231910E-02
   1.583000E-01     2.216920E-01
   8.190000E-02     3.952550E-01
   4.123000E-02     3.640780E-01
   1.988000E-02     9.779520E-02
P 1 1.00
   1.583000E-01     1.000000E+00
P 1 1.00
   8.190000E-02     1.000000E+00
P 1 1.00
   4.123000E-02     1.000000E+00
P 1 1.00
   1.988000E-02     1.000000E+00
P 1 1.00
   6.738800E+01     1.000000E+00
P 1 1.00
   2.475700E+01     1.000000E+00
P 1 1.00
   9.095100E+00     1.000000E+00
P 1 1.00
   3.341300E+00     1.000000E+00
D 1 1.00
   1.083700E+00     1.000000E+00
D 1 1.00
   4.968000E-01     1.000000E+00
D 1 1.00
   2.278000E-01     1.000000E+00
D 1 1.00
   1.044000E-01     1.000000E+00
D 1 1.00
   2.418400E+01     1.000000E+00
D 1 1.00
   1.142000E+01     1.000000E+00
D 1 1.00
   5.392900E+00     1.000000E+00
D 1 1.00
   2.546600E+00     1.000000E+00
F 1 1.00
   4.917000E-01     1.000000E+00
F 1 1.00
   2.764000E-01     1.000000E+00
F 1 1.00
   1.554000E-01     1.000000E+00
F 1 1.00
   1.316400E+01     1.000000E+00
F 1 1.00
   5.564200E+00     1.000000E+00
F 1 1.00
   2.351900E+00     1.000000E+00
G 1 1.00
   4.427000E-01     1.000000E+00
G 1 1.00
   2.311000E-01     1.000000E+00
G 1 1.00
   9.346800E+00     1.000000E+00
G 1 1.00
   3.516700E+00     1.000000E+00
H 1 1.00
   3.731000E-01     1.000000E+00
H 1 1.00
   6.718000E+00     1.000000E+00
S   1   1.00
      0.0108000              1.0000000
P   1   1.00
      0.0071000              1.0000000
D   1   1.00
      0.0371000              1.0000000
F   1   1.00
      0.0579000              1.0000000
G   1   1.00
      0.0947000              1.0000000
H   1   1.00
      0.1577000              1.0000000
****
$end

$multipole_field
XX -0.0001
$end


--------------------------------------------------------------
 ----------------------------------------------------------------
             Standard Nuclear Orientation (Angstroms)
    I     Atom           X                Y                Z
 ----------------------------------------------------------------
    1      Mg      0.0000000000     0.0000000000     0.0000000000
 ----------------------------------------------------------------
 Nuclear Repulsion Energy =     0.0000000000 hartrees
 There are        6 alpha and        6 beta electrons

 Q-Chem warning in module forms1/BasisType.C, line 1703:

 Setting pure/cartesian flag to 2111 for general basis


 Requested basis set is non-standard
 There are 46 shells and 246 basis functions

 Total QAlloc Memory Limit 128000 MB
 Mega-Array Size      1467 MB
 MEM_STATIC part      1500 MB
 Applying Cartesian multipole field
    Component          Value
    ---------          -----
     (2,0,0)       -1.00000E-04
 Requested basis set is rimp2-cc-pVQZ
 There are 38 shells and 168 basis functions
 A cutoff of  1.0D-14 yielded   1081 shell pairs
 There are     31461 function pairs (     48609 Cartesian)
 
 -------------------------------------------------------
 OpenMP Integral Computing Module                       
 Release: version 1.0, May 2013, Q-Chem Inc. Pittsburgh 
 -------------------------------------------------------
 Integral Job Info:
 Integral job number is                      11
 Integral operator is                         1
 short-range coefficients                     0
 long-range coefficients              100000000
 Omega coefficients                           0
 if combine SR and LR in K                    0
 Integral screening is                        0
 Integral computing path is                   2
 max size of driver memory is           6400000
 size of driver memory is               5498286
 size of scratch memory is             21126762
 max col of scratch BK array             194481
 max len of scratch array in speh3         5572
 max len of scratch index in speh4           72
 max int batch size is                      520
 min int batch size is                       52
 fixed nKL is                                 2
 max L of basis functions is                  5
 order of int derivative is                   0
 number of shells is                         46
 number of basis is                         306
 number of cartesian basis is               306
 number of contracted shell pairs          1081
 number of primitive shell pairs           6667
 maxK2 (contraction) of shell pair          400
 max number of K2 of shell pair               1
 max number of CS2 of shell pair             81
 max number of PS2 of shell pair           1200
 mem total for path MDJ                  876929
 -------------------------------------------------------
 Smallest overlap matrix eigenvalue = 9.28E-06
 Guess MOs from SCF MO coefficient file
 Reading MOs from coefficient file
 Reading MOs from coefficient file
 A restricted hybrid HF-DFT SCF calculation will be
 performed using Geometric Direct Minimization
 Exchange:     0.2000 Hartree-Fock + 0.0800 Slater + 0.7200 B88
 Correlation:  0.1900 VWN1RPA + 0.8100 LYP
 Using Euler-Maclaurin-Lebedev (99,590) quadrature formula
 SCF converges when RMS gradient is below 1.0E-08
Using Q-Chem read-in guess as SCF_GUESS READ specified.

 using 8 threads for integral computing
 -------------------------------------------------------
 OpenMP Integral computing Module                
 Release: version 2.0, May 2017, Q-Chem Inc. Pleasanton 
 -------------------------------------------------------
 LTot/LBra/LKet=          20          10          10
 LTot/LBra/LKet=          20          10          10
 LTot/LBra/LKet=          19           9          10

 Q-Chem warning:

 in GenH1, ket side, handled with new code

 LTot/LBra/LKet=          19           9          10
 LTot/LBra/LKet=          19           9          10

 Q-Chem warning:

 in GenH1, ket side, handled with new code

 LTot/LBra/LKet=          19           9          10

 Q-Chem warning:

 in GenH1, ket side, handled with new code


 Q-Chem warning:

 in GenH1, ket side, handled with new code


 Q-Chem warning:

 in GenH1, ket side, handled with new code


 Q-Chem warning:

 in GenH1, ket side, handled with new code

 LTot/LBra/LKet=          20          10          10

 Q-Chem warning:

 in GenH1, ket side, handled with new code

 LTot/LBra/LBra=          20          10          10

 Q-Chem warning:

 in GenH1, bra side, handled with new code

 LTot/LBra/LKet=          19           9          10

 Q-Chem warning:

 in GenH1, ket side, handled with new code

TIMEINFO->: J/JK contribution 362.17 sec.
 -------------------------------------------------------
 OpenMP BLAS3 based DFT computing Module                
 Release: version 1.0, May 2013, Q-Chem Inc. Pittsburgh 
 -------------------------------------------------------
 ---------------------------------------
  Cycle       Energy        RMS Gradient
 ---------------------------------------
    1    -200.1025061669      2.51E-03 Normal BFGS step
TIMEINFO->: J/JK contribution 342.48 sec.
    2    -200.1025176825      4.12E-04 Normal BFGS step
TIMEINFO->: J/JK contribution 341.10 sec.
    3    -200.1025179695      4.54E-05 Normal BFGS step
TIMEINFO->: J/JK contribution 344.01 sec.
    4    -200.1025179930      1.83E-05 Normal BFGS step
TIMEINFO->: J/JK contribution 324.91 sec.
    5    -200.1025179957      2.60E-06 Normal BFGS step
TIMEINFO->: J/JK contribution 295.96 sec.
    6    -200.1025179957      1.71E-07 Normal BFGS step
TIMEINFO->: J/JK contribution 251.80 sec.
   GDM::WARNING energy changes are now smaller than effective accuracy.
   GDM::        calculation will continue, but THRESH should be increased
   GDM::        or SCF_CONVERGENCE decreased.
   GDM::        effective_thresh =   6.000000000000000E-011
    7    -200.1025179957      7.53E-09 Convergence criterion met
 ---------------------------------------
 B3LYP orbitals are now ready for the XYGJ-OS calculation.
 XYGJ-OS energy = Exch (0.7731 HF  + 0.2269 Slater) + 
                  Corr (0.2754 LYP + 0.2309 VWN1RPA + 0.4364 OS-MP2)
 SCF time:  CPU 2293.26 s  wall 288.69 s
 SCF   energy in the final basis set = -199.68446258
 Total energy in the final basis set = -199.68446258
 Entering Scaled Opposite Spin MP2
 NBasAux in rimp2.F =          168

 OS-MP2 job begins now...

 SOS scaling factor =  0.4
 Form (P|Q)**(-1/2)...

 Q-Chem fatal error occurred in module libmdc/qalloc.C, line 49:

 Illegal memory length in mega_alloc


 Please submit a crash report at q-chem.com/reporter 
 
 
 
User input: 4 of 7 
 
Q-Chem Developer Version!
                  Welcome to Q-Chem
     A Quantum Leap Into The Future Of Chemistry


 Q-Chem 5.1, Q-Chem, Inc., Pleasanton, CA (2018)

 Yihan Shao,  Zhengting Gan,  E. Epifanovsky,  A. T. B. Gilbert,  M. Wormit,  
 J. Kussmann,  A. W. Lange,  A. Behn,  Jia Deng,  Xintian Feng,  D. Ghosh,  
 M. Goldey,  P. R. Horn,  L. D. Jacobson,  I. Kaliman,  T. Kus,  A. Landau,  
 Jie Liu,  E. I. Proynov,  R. M. Richard,  R. P. Steele,  E. J. Sundstrom,  
 H. L. Woodcock III,  P. M. Zimmerman,  D. Zuev,  B. Albrecht,  E. Alguire,  
 S. A. Baeppler,  D. Barton,  Z. Benda,  Y. A. Bernard,  E. J. Berquist,  
 K. B. Bravaya,  H. Burton,  D. Casanova,  Chun-Min Chang,  Yunqing Chen,  
 A. Chien,  K. D. Closser,  M. P. Coons,  S. Coriani,  S. Dasgupta,  
 A. L. Dempwolff,  M. Diedenhofen,  Hainam Do,  R. G. Edgar,  Po-Tung Fang,  
 S. Faraji,  S. Fatehi,  Qingguo Feng,  K. D. Fenk,  J. Fosso-Tande,  
 Qinghui Ge,  A. Ghysels,  G. Gidofalvi,  J. Gomes,  J. Gonthier,  A. Gunina,  
 D. Hait,  M. W. D. Hanson-Heine,  P. H. P. Harbach,  A. W. Hauser,  
 J. E. Herr,  E. G. Hohenstein,  Z. C. Holden,  Kerwin Hui,  B. C. Huynh,  
 T.-C. Jagau,  Hyunjun Ji,  B. Kaduk,  K. Khistyaev,  Jaehoon Kim,  
 P. Klunzinger,  K. Koh,  D. Kosenkov,  L. Koulias,  T. Kowalczyk,  
 C. M. Krauter,  A. Kunitsa,  Ka Un Lao,  A. Laurent,  K. V. Lawler,  
 Joonho Lee,  D. Lefrancois,  S. Lehtola,  D. S. Levine,  Yi-Pei Li,  
 You-Sheng Lin,  Fenglai Liu,  E. Livshits,  A. Luenser,  P. Manohar,  
 E. Mansoor,  S. F. Manzer,  Shan-Ping Mao,  Yuezhi Mao,  N. Mardirossian,  
 A. V. Marenich,  T. Markovich,  L. A. Martinez-Martinez,  S. A. Maurer,  
 N. J. Mayhall,  S. C. McKenzie,  J.-M. Mewes,  A. F. Morrison,  
 J. W. Mullinax,  K. Nanda,  T. S. Nguyen-Beck,  R. Olivares-Amaya,  
 J. A. Parkhill,  T. M. Perrine,  F. Plasser,  P. Pokhilko,  S. Prager,  
 A. Prociuk,  E. Ramos,  D. R. Rehn,  F. Rob,  M. Schneider,  N. Sergueev,  
 S. M. Sharada,  S. Sharma,  D. W. Small,  T. Stauch,  T. Stein,  
 Yu-Chuan Su,  A. J. W. Thom,  A. Tkatchenko,  T. Tsuchimochi,  N. M. Tubman,  
 L. Vogt,  M. L. Vidal,  O. Vydrov,  M. A. Watson,  J. Wenzel,  
 M. de Wergifosse,  T. A. Wesolowski,  A. White,  J. Witte,  A. Yamada,  
 Jun Yang,  K. Yao,  S. Yeganeh,  S. R. Yost,  Zhi-Qiang You,  A. Zech,  
 Igor Ying Zhang,  Xing Zhang,  Yan Zhao,  Ying Zhu,  B. R. Brooks,  
 G. K. L. Chan,  C. J. Cramer,  M. S. Gordon,  W. J. Hehre,  A. Klamt,  
 M. W. Schmidt,  C. D. Sherrill,  D. G. Truhlar,  A. Aspuru-Guzik,  R. Baer,  
 A. T. Bell,  N. A. Besley,  Jeng-Da Chai,  A. E. DePrince, III,  
 R. A. DiStasio Jr.,  A. Dreuw,  B. D. Dunietz,  T. R. Furlani,  
 Chao-Ping Hsu,  Yousung Jung,  Jing Kong,  D. S. Lambrecht,  WanZhen Liang,  
 C. Ochsenfeld,  V. A. Rassolov,  L. V. Slipchenko,  J. E. Subotnik,  
 T. Van Voorhis,  J. M. Herbert,  A. I. Krylov,  P. M. W. Gill,  M. Head-Gordon

 Contributors to earlier versions of Q-Chem not listed above: 
 R. D. Adamson,  B. Austin,  J. Baker,  G. J. O. Beran,  K. Brandhorst,  
 S. T. Brown,  E. F. C. Byrd,  A. K. Chakraborty,  C.-L. Cheng,  
 Siu Hung Chien,  D. M. Chipman,  D. L. Crittenden,  H. Dachsel,  
 R. J. Doerksen,  A. D. Dutoi,  L. Fusti-Molnar,  W. A. Goddard III,  
 A. Golubeva-Zadorozhnaya,  S. R. Gwaltney,  G. Hawkins,  A. Heyden,  
 S. Hirata,  G. Kedziora,  F. J. Keil,  C. Kelley,  Jihan Kim,  R. A. King,  
 R. Z. Khaliullin,  P. P. Korambath,  W. Kurlancheek,  A. M. Lee,  M. S. Lee,  
 S. V. Levchenko,  Ching Yeh Lin,  D. Liotard,  R. C. Lochan,  I. Lotan,  
 P. E. Maslen,  N. Nair,  D. P. O'Neill,  D. Neuhauser,  E. Neuscamman,  
 C. M. Oana,  R. Olson,  B. Peters,  R. Peverati,  P. A. Pieniazek,  
 Y. M. Rhee,  J. Ritchie,  M. A. Rohrdanz,  E. Rosta,  N. J. Russ,  
 H. F. Schaefer III,  N. E. Schultz,  N. Shenvi,  A. C. Simmonett,  A. Sodt,  
 D. Stuck,  K. S. Thanthiriwatte,  V. Vanovschi,  Tao Wang,  A. Warshel,  
 C. F. Williams,  Q. Wu,  X. Xu,  W. Zhang

 Please cite Q-Chem as follows:
 Y. Shao et al., Mol. Phys. 113, 184-215 (2015)
 DOI: 10.1080/00268976.2014.952696

 Q-Chem 5.1.1 for Intel X86 EM64T Linux

 Parts of Q-Chem use Armadillo 8.300.2 (Tropical Shenanigans).
 http://arma.sourceforge.net/

 Q-Chem begins on Fri Oct 23 20:08:30 2020  

Host: n0054.mhg0
0

     Scratch files written to /local/scratch/users/yhljason/Mg_XYGJOS_aug-cc-pcV5Z.inp20201023194314//
The previous job contains 0 fragments, simply inherited here
Input Ideriv = 2
Curr. Ideriv = -1
Max.  Ideriv = 2

Checking the input file for inconsistencies... 	...done.

--------------------------------------------------------------
User input:
--------------------------------------------------------------
$molecule
read
$end

$rem

jobtype sp
exchange XYGJOS
xc_grid 000099000590
basis gen
aux_basis rimp2-cc-pVQZ
max_scf_cycles 200
thresh 14
scf_convergence 8
mem_total 128000
cc_memory 96000
cc_backend xm
mem_static 1500
symmetry false
sym_ignore true
scf_guess read
unrestricted false
scf_algorithm gdm
n_frozen_core 1000
$end

$basis
****
Mg     0
S 20 1.00
   2.968000E+06     1.971770E-06
   4.443000E+05     1.533620E-05
   1.011000E+05     8.068520E-05
   2.864000E+04     3.407710E-04
   9.343000E+03     1.241940E-03
   3.373000E+03     4.041240E-03
   1.316000E+03     1.197970E-02
   5.458000E+02     3.242530E-02
   2.381000E+02     7.893320E-02
   1.082000E+02     1.665750E-01
   5.080000E+01     2.828710E-01
   2.448000E+01     3.318900E-01
   1.193000E+01     2.032870E-01
   5.543000E+00     3.828970E-02
   2.675000E+00     3.089160E-04
   1.263000E+00     1.389070E-03
   5.883000E-01    -1.361590E-04
   1.496000E-01     8.553220E-05
   6.700000E-02    -5.691020E-05
   2.952000E-02     1.772590E-05
S 20 1.00
   2.968000E+06    -4.981600E-07
   4.443000E+05    -3.875630E-06
   1.011000E+05    -2.038540E-05
   2.864000E+04    -8.616590E-05
   9.343000E+03    -3.141760E-04
   3.373000E+03    -1.025770E-03
   1.316000E+03    -3.058160E-03
   5.458000E+02    -8.410630E-03
   2.381000E+02    -2.112020E-02
   1.082000E+02    -4.768820E-02
   5.080000E+01    -9.241190E-02
   2.448000E+01    -1.425480E-01
   1.193000E+01    -1.261680E-01
   5.543000E+00     7.152820E-02
   2.675000E+00     3.830390E-01
   1.263000E+00     4.901330E-01
   5.883000E-01     2.043810E-01
   1.496000E-01     7.022310E-03
   6.700000E-02    -2.678740E-03
   2.952000E-02     6.936900E-04
S 1 1.00
   1.193000E+01     1.000000E+00
S 1 1.00
   5.543000E+00     1.000000E+00
S 1 1.00
   2.675000E+00     1.000000E+00
S 1 1.00
   1.263000E+00     1.000000E+00
S 1 1.00
   5.883000E-01     1.000000E+00
S 1 1.00
   1.496000E-01     1.000000E+00
S 1 1.00
   6.700000E-02     1.000000E+00
S 1 1.00
   2.952000E-02     1.000000E+00
P 14 1.00
   1.441000E+03     1.524070E-04
   3.414000E+02     1.327640E-03
   1.107000E+02     7.219370E-03
   4.197000E+01     2.852050E-02
   1.749000E+01     8.653460E-02
   7.753000E+00     1.949500E-01
   3.534000E+00     3.120510E-01
   1.614000E+00     3.484760E-01
   7.299000E-01     2.188860E-01
   3.029000E-01     4.355790E-02
   1.583000E-01    -3.737470E-03
   8.190000E-02     3.051230E-03
   4.123000E-02    -8.669220E-04
   1.988000E-02     2.305170E-04
P 14 1.00
   1.441000E+03    -2.410310E-05
   3.414000E+02    -2.108090E-04
   1.107000E+02    -1.145300E-03
   4.197000E+01    -4.564170E-03
   1.749000E+01    -1.396030E-02
   7.753000E+00    -3.211050E-02
   3.534000E+00    -5.162170E-02
   1.614000E+00    -6.137130E-02
   7.299000E-01    -4.424650E-02
   3.029000E-01     5.231910E-02
   1.583000E-01     2.216920E-01
   8.190000E-02     3.952550E-01
   4.123000E-02     3.640780E-01
   1.988000E-02     9.779520E-02
P 1 1.00
   1.583000E-01     1.000000E+00
P 1 1.00
   8.190000E-02     1.000000E+00
P 1 1.00
   4.123000E-02     1.000000E+00
P 1 1.00
   1.988000E-02     1.000000E+00
P 1 1.00
   6.738800E+01     1.000000E+00
P 1 1.00
   2.475700E+01     1.000000E+00
P 1 1.00
   9.095100E+00     1.000000E+00
P 1 1.00
   3.341300E+00     1.000000E+00
D 1 1.00
   1.083700E+00     1.000000E+00
D 1 1.00
   4.968000E-01     1.000000E+00
D 1 1.00
   2.278000E-01     1.000000E+00
D 1 1.00
   1.044000E-01     1.000000E+00
D 1 1.00
   2.418400E+01     1.000000E+00
D 1 1.00
   1.142000E+01     1.000000E+00
D 1 1.00
   5.392900E+00     1.000000E+00
D 1 1.00
   2.546600E+00     1.000000E+00
F 1 1.00
   4.917000E-01     1.000000E+00
F 1 1.00
   2.764000E-01     1.000000E+00
F 1 1.00
   1.554000E-01     1.000000E+00
F 1 1.00
   1.316400E+01     1.000000E+00
F 1 1.00
   5.564200E+00     1.000000E+00
F 1 1.00
   2.351900E+00     1.000000E+00
G 1 1.00
   4.427000E-01     1.000000E+00
G 1 1.00
   2.311000E-01     1.000000E+00
G 1 1.00
   9.346800E+00     1.000000E+00
G 1 1.00
   3.516700E+00     1.000000E+00
H 1 1.00
   3.731000E-01     1.000000E+00
H 1 1.00
   6.718000E+00     1.000000E+00
S   1   1.00
      0.0108000              1.0000000
P   1   1.00
      0.0071000              1.0000000
D   1   1.00
      0.0371000              1.0000000
F   1   1.00
      0.0579000              1.0000000
G   1   1.00
      0.0947000              1.0000000
H   1   1.00
      0.1577000              1.0000000
****
$end

$multipole_field
YY 0.0001
$end


--------------------------------------------------------------
 ----------------------------------------------------------------
             Standard Nuclear Orientation (Angstroms)
    I     Atom           X                Y                Z
 ----------------------------------------------------------------
    1      Mg      0.0000000000     0.0000000000     0.0000000000
 ----------------------------------------------------------------
 Nuclear Repulsion Energy =     0.0000000000 hartrees
 There are        6 alpha and        6 beta electrons

 Q-Chem warning in module forms1/BasisType.C, line 1703:

 Setting pure/cartesian flag to 2111 for general basis


 Requested basis set is non-standard
 There are 46 shells and 246 basis functions

 Total QAlloc Memory Limit 128000 MB
 Mega-Array Size      1467 MB
 MEM_STATIC part      1500 MB
 Applying Cartesian multipole field
    Component          Value
    ---------          -----
     (0,2,0)        1.00000E-04
 Requested basis set is rimp2-cc-pVQZ
 There are 38 shells and 168 basis functions
 A cutoff of  1.0D-14 yielded   1081 shell pairs
 There are     31461 function pairs (     48609 Cartesian)
 
 -------------------------------------------------------
 OpenMP Integral Computing Module                       
 Release: version 1.0, May 2013, Q-Chem Inc. Pittsburgh 
 -------------------------------------------------------
 Integral Job Info:
 Integral job number is                      11
 Integral operator is                         1
 short-range coefficients                     0
 long-range coefficients              100000000
 Omega coefficients                           0
 if combine SR and LR in K                    0
 Integral screening is                        0
 Integral computing path is                   2
 max size of driver memory is           6400000
 size of driver memory is               5498286
 size of scratch memory is             21126762
 max col of scratch BK array             194481
 max len of scratch array in speh3         5572
 max len of scratch index in speh4           72
 max int batch size is                      520
 min int batch size is                       52
 fixed nKL is                                 2
 max L of basis functions is                  5
 order of int derivative is                   0
 number of shells is                         46
 number of basis is                         306
 number of cartesian basis is               306
 number of contracted shell pairs          1081
 number of primitive shell pairs           6667
 maxK2 (contraction) of shell pair          400
 max number of K2 of shell pair               1
 max number of CS2 of shell pair             81
 max number of PS2 of shell pair           1200
 mem total for path MDJ                  876929
 -------------------------------------------------------
 Smallest overlap matrix eigenvalue = 9.28E-06
 Guess MOs from SCF MO coefficient file
 Reading MOs from coefficient file
 Reading MOs from coefficient file
 A restricted hybrid HF-DFT SCF calculation will be
 performed using Geometric Direct Minimization
 Exchange:     0.2000 Hartree-Fock + 0.0800 Slater + 0.7200 B88
 Correlation:  0.1900 VWN1RPA + 0.8100 LYP
 Using Euler-Maclaurin-Lebedev (99,590) quadrature formula
 SCF converges when RMS gradient is below 1.0E-08
Using Q-Chem read-in guess as SCF_GUESS READ specified.

 using 8 threads for integral computing
 -------------------------------------------------------
 OpenMP Integral computing Module                
 Release: version 2.0, May 2017, Q-Chem Inc. Pleasanton 
 -------------------------------------------------------
 LTot/LBra/LKet=          20          10          10
 LTot/LBra/LKet=          20          10          10
 LTot/LBra/LKet=          19           9          10
 LTot/LBra/LKet=          19           9          10

 Q-Chem warning:

 in GenH1, ket side, handled with new code


 Q-Chem warning:

 in GenH1, ket side, handled with new code


 Q-Chem warning:

 in GenH1, ket side, handled with new code

 LTot/LBra/LKet=          20          10          10
 LTot/LBra/LKet=          19           9          10

 Q-Chem warning:

 in GenH1, ket side, handled with new code


 Q-Chem warning:

 in GenH1, ket side, handled with new code

 LTot/LBra/LKet=          19           9          10

 Q-Chem warning:

 in GenH1, ket side, handled with new code

 LTot/LBra/LKet=          19           9          10

 Q-Chem warning:

 in GenH1, ket side, handled with new code


 Q-Chem warning:

 in GenH1, ket side, handled with new code

 LTot/LBra/LBra=          20          10          10

 Q-Chem warning:

 in GenH1, bra side, handled with new code

TIMEINFO->: J/JK contribution 369.48 sec.
 -------------------------------------------------------
 OpenMP BLAS3 based DFT computing Module                
 Release: version 1.0, May 2013, Q-Chem Inc. Pittsburgh 
 -------------------------------------------------------
 ---------------------------------------
  Cycle       Energy        RMS Gradient
 ---------------------------------------
    1    -200.1043892443      1.58E-03 Normal BFGS step
TIMEINFO->: J/JK contribution 374.10 sec.
    2    -200.1043949101      2.23E-04 Normal BFGS step
TIMEINFO->: J/JK contribution 341.52 sec.
    3    -200.1043950420      3.87E-05 Normal BFGS step
TIMEINFO->: J/JK contribution 338.25 sec.
    4    -200.1043950585      1.25E-05 Normal BFGS step
TIMEINFO->: J/JK contribution 345.92 sec.
    5    -200.1043950595      1.17E-06 Normal BFGS step
TIMEINFO->: J/JK contribution 289.53 sec.
    6    -200.1043950596      9.30E-08 Normal BFGS step
TIMEINFO->: J/JK contribution 263.88 sec.
   GDM::WARNING energy changes are now smaller than effective accuracy.
   GDM::        calculation will continue, but THRESH should be increased
   GDM::        or SCF_CONVERGENCE decreased.
   GDM::        effective_thresh =   6.000000000000000E-011
    7    -200.1043950596      7.05E-09 Convergence criterion met
 ---------------------------------------
 B3LYP orbitals are now ready for the XYGJ-OS calculation.
 XYGJ-OS energy = Exch (0.7731 HF  + 0.2269 Slater) + 
                  Corr (0.2754 LYP + 0.2309 VWN1RPA + 0.4364 OS-MP2)
 SCF time:  CPU 2354.63 s  wall 296.47 s
 SCF   energy in the final basis set = -199.68638588
 Total energy in the final basis set = -199.68638588
 Entering Scaled Opposite Spin MP2
 NBasAux in rimp2.F =          168

 OS-MP2 job begins now...

 SOS scaling factor =  0.4
 Form (P|Q)**(-1/2)...

 Q-Chem fatal error occurred in module libmdc/qalloc.C, line 49:

 Illegal memory length in mega_alloc


 Please submit a crash report at q-chem.com/reporter 
 
 
 
User input: 5 of 7 
 
Q-Chem Developer Version!
                  Welcome to Q-Chem
     A Quantum Leap Into The Future Of Chemistry


 Q-Chem 5.1, Q-Chem, Inc., Pleasanton, CA (2018)

 Yihan Shao,  Zhengting Gan,  E. Epifanovsky,  A. T. B. Gilbert,  M. Wormit,  
 J. Kussmann,  A. W. Lange,  A. Behn,  Jia Deng,  Xintian Feng,  D. Ghosh,  
 M. Goldey,  P. R. Horn,  L. D. Jacobson,  I. Kaliman,  T. Kus,  A. Landau,  
 Jie Liu,  E. I. Proynov,  R. M. Richard,  R. P. Steele,  E. J. Sundstrom,  
 H. L. Woodcock III,  P. M. Zimmerman,  D. Zuev,  B. Albrecht,  E. Alguire,  
 S. A. Baeppler,  D. Barton,  Z. Benda,  Y. A. Bernard,  E. J. Berquist,  
 K. B. Bravaya,  H. Burton,  D. Casanova,  Chun-Min Chang,  Yunqing Chen,  
 A. Chien,  K. D. Closser,  M. P. Coons,  S. Coriani,  S. Dasgupta,  
 A. L. Dempwolff,  M. Diedenhofen,  Hainam Do,  R. G. Edgar,  Po-Tung Fang,  
 S. Faraji,  S. Fatehi,  Qingguo Feng,  K. D. Fenk,  J. Fosso-Tande,  
 Qinghui Ge,  A. Ghysels,  G. Gidofalvi,  J. Gomes,  J. Gonthier,  A. Gunina,  
 D. Hait,  M. W. D. Hanson-Heine,  P. H. P. Harbach,  A. W. Hauser,  
 J. E. Herr,  E. G. Hohenstein,  Z. C. Holden,  Kerwin Hui,  B. C. Huynh,  
 T.-C. Jagau,  Hyunjun Ji,  B. Kaduk,  K. Khistyaev,  Jaehoon Kim,  
 P. Klunzinger,  K. Koh,  D. Kosenkov,  L. Koulias,  T. Kowalczyk,  
 C. M. Krauter,  A. Kunitsa,  Ka Un Lao,  A. Laurent,  K. V. Lawler,  
 Joonho Lee,  D. Lefrancois,  S. Lehtola,  D. S. Levine,  Yi-Pei Li,  
 You-Sheng Lin,  Fenglai Liu,  E. Livshits,  A. Luenser,  P. Manohar,  
 E. Mansoor,  S. F. Manzer,  Shan-Ping Mao,  Yuezhi Mao,  N. Mardirossian,  
 A. V. Marenich,  T. Markovich,  L. A. Martinez-Martinez,  S. A. Maurer,  
 N. J. Mayhall,  S. C. McKenzie,  J.-M. Mewes,  A. F. Morrison,  
 J. W. Mullinax,  K. Nanda,  T. S. Nguyen-Beck,  R. Olivares-Amaya,  
 J. A. Parkhill,  T. M. Perrine,  F. Plasser,  P. Pokhilko,  S. Prager,  
 A. Prociuk,  E. Ramos,  D. R. Rehn,  F. Rob,  M. Schneider,  N. Sergueev,  
 S. M. Sharada,  S. Sharma,  D. W. Small,  T. Stauch,  T. Stein,  
 Yu-Chuan Su,  A. J. W. Thom,  A. Tkatchenko,  T. Tsuchimochi,  N. M. Tubman,  
 L. Vogt,  M. L. Vidal,  O. Vydrov,  M. A. Watson,  J. Wenzel,  
 M. de Wergifosse,  T. A. Wesolowski,  A. White,  J. Witte,  A. Yamada,  
 Jun Yang,  K. Yao,  S. Yeganeh,  S. R. Yost,  Zhi-Qiang You,  A. Zech,  
 Igor Ying Zhang,  Xing Zhang,  Yan Zhao,  Ying Zhu,  B. R. Brooks,  
 G. K. L. Chan,  C. J. Cramer,  M. S. Gordon,  W. J. Hehre,  A. Klamt,  
 M. W. Schmidt,  C. D. Sherrill,  D. G. Truhlar,  A. Aspuru-Guzik,  R. Baer,  
 A. T. Bell,  N. A. Besley,  Jeng-Da Chai,  A. E. DePrince, III,  
 R. A. DiStasio Jr.,  A. Dreuw,  B. D. Dunietz,  T. R. Furlani,  
 Chao-Ping Hsu,  Yousung Jung,  Jing Kong,  D. S. Lambrecht,  WanZhen Liang,  
 C. Ochsenfeld,  V. A. Rassolov,  L. V. Slipchenko,  J. E. Subotnik,  
 T. Van Voorhis,  J. M. Herbert,  A. I. Krylov,  P. M. W. Gill,  M. Head-Gordon

 Contributors to earlier versions of Q-Chem not listed above: 
 R. D. Adamson,  B. Austin,  J. Baker,  G. J. O. Beran,  K. Brandhorst,  
 S. T. Brown,  E. F. C. Byrd,  A. K. Chakraborty,  C.-L. Cheng,  
 Siu Hung Chien,  D. M. Chipman,  D. L. Crittenden,  H. Dachsel,  
 R. J. Doerksen,  A. D. Dutoi,  L. Fusti-Molnar,  W. A. Goddard III,  
 A. Golubeva-Zadorozhnaya,  S. R. Gwaltney,  G. Hawkins,  A. Heyden,  
 S. Hirata,  G. Kedziora,  F. J. Keil,  C. Kelley,  Jihan Kim,  R. A. King,  
 R. Z. Khaliullin,  P. P. Korambath,  W. Kurlancheek,  A. M. Lee,  M. S. Lee,  
 S. V. Levchenko,  Ching Yeh Lin,  D. Liotard,  R. C. Lochan,  I. Lotan,  
 P. E. Maslen,  N. Nair,  D. P. O'Neill,  D. Neuhauser,  E. Neuscamman,  
 C. M. Oana,  R. Olson,  B. Peters,  R. Peverati,  P. A. Pieniazek,  
 Y. M. Rhee,  J. Ritchie,  M. A. Rohrdanz,  E. Rosta,  N. J. Russ,  
 H. F. Schaefer III,  N. E. Schultz,  N. Shenvi,  A. C. Simmonett,  A. Sodt,  
 D. Stuck,  K. S. Thanthiriwatte,  V. Vanovschi,  Tao Wang,  A. Warshel,  
 C. F. Williams,  Q. Wu,  X. Xu,  W. Zhang

 Please cite Q-Chem as follows:
 Y. Shao et al., Mol. Phys. 113, 184-215 (2015)
 DOI: 10.1080/00268976.2014.952696

 Q-Chem 5.1.1 for Intel X86 EM64T Linux

 Parts of Q-Chem use Armadillo 8.300.2 (Tropical Shenanigans).
 http://arma.sourceforge.net/

 Q-Chem begins on Fri Oct 23 20:13:31 2020  

Host: n0054.mhg0
0

     Scratch files written to /local/scratch/users/yhljason/Mg_XYGJOS_aug-cc-pcV5Z.inp20201023194314//
The previous job contains 0 fragments, simply inherited here
Input Ideriv = 2
Curr. Ideriv = -1
Max.  Ideriv = 2

Checking the input file for inconsistencies... 	...done.

--------------------------------------------------------------
User input:
--------------------------------------------------------------
$molecule
read
$end

$rem

jobtype sp
exchange XYGJOS
xc_grid 000099000590
basis gen
aux_basis rimp2-cc-pVQZ
max_scf_cycles 200
thresh 14
scf_convergence 8
mem_total 128000
cc_memory 96000
cc_backend xm
mem_static 1500
symmetry false
sym_ignore true
scf_guess read
unrestricted false
scf_algorithm gdm
n_frozen_core 1000
$end

$basis
****
Mg     0
S 20 1.00
   2.968000E+06     1.971770E-06
   4.443000E+05     1.533620E-05
   1.011000E+05     8.068520E-05
   2.864000E+04     3.407710E-04
   9.343000E+03     1.241940E-03
   3.373000E+03     4.041240E-03
   1.316000E+03     1.197970E-02
   5.458000E+02     3.242530E-02
   2.381000E+02     7.893320E-02
   1.082000E+02     1.665750E-01
   5.080000E+01     2.828710E-01
   2.448000E+01     3.318900E-01
   1.193000E+01     2.032870E-01
   5.543000E+00     3.828970E-02
   2.675000E+00     3.089160E-04
   1.263000E+00     1.389070E-03
   5.883000E-01    -1.361590E-04
   1.496000E-01     8.553220E-05
   6.700000E-02    -5.691020E-05
   2.952000E-02     1.772590E-05
S 20 1.00
   2.968000E+06    -4.981600E-07
   4.443000E+05    -3.875630E-06
   1.011000E+05    -2.038540E-05
   2.864000E+04    -8.616590E-05
   9.343000E+03    -3.141760E-04
   3.373000E+03    -1.025770E-03
   1.316000E+03    -3.058160E-03
   5.458000E+02    -8.410630E-03
   2.381000E+02    -2.112020E-02
   1.082000E+02    -4.768820E-02
   5.080000E+01    -9.241190E-02
   2.448000E+01    -1.425480E-01
   1.193000E+01    -1.261680E-01
   5.543000E+00     7.152820E-02
   2.675000E+00     3.830390E-01
   1.263000E+00     4.901330E-01
   5.883000E-01     2.043810E-01
   1.496000E-01     7.022310E-03
   6.700000E-02    -2.678740E-03
   2.952000E-02     6.936900E-04
S 1 1.00
   1.193000E+01     1.000000E+00
S 1 1.00
   5.543000E+00     1.000000E+00
S 1 1.00
   2.675000E+00     1.000000E+00
S 1 1.00
   1.263000E+00     1.000000E+00
S 1 1.00
   5.883000E-01     1.000000E+00
S 1 1.00
   1.496000E-01     1.000000E+00
S 1 1.00
   6.700000E-02     1.000000E+00
S 1 1.00
   2.952000E-02     1.000000E+00
P 14 1.00
   1.441000E+03     1.524070E-04
   3.414000E+02     1.327640E-03
   1.107000E+02     7.219370E-03
   4.197000E+01     2.852050E-02
   1.749000E+01     8.653460E-02
   7.753000E+00     1.949500E-01
   3.534000E+00     3.120510E-01
   1.614000E+00     3.484760E-01
   7.299000E-01     2.188860E-01
   3.029000E-01     4.355790E-02
   1.583000E-01    -3.737470E-03
   8.190000E-02     3.051230E-03
   4.123000E-02    -8.669220E-04
   1.988000E-02     2.305170E-04
P 14 1.00
   1.441000E+03    -2.410310E-05
   3.414000E+02    -2.108090E-04
   1.107000E+02    -1.145300E-03
   4.197000E+01    -4.564170E-03
   1.749000E+01    -1.396030E-02
   7.753000E+00    -3.211050E-02
   3.534000E+00    -5.162170E-02
   1.614000E+00    -6.137130E-02
   7.299000E-01    -4.424650E-02
   3.029000E-01     5.231910E-02
   1.583000E-01     2.216920E-01
   8.190000E-02     3.952550E-01
   4.123000E-02     3.640780E-01
   1.988000E-02     9.779520E-02
P 1 1.00
   1.583000E-01     1.000000E+00
P 1 1.00
   8.190000E-02     1.000000E+00
P 1 1.00
   4.123000E-02     1.000000E+00
P 1 1.00
   1.988000E-02     1.000000E+00
P 1 1.00
   6.738800E+01     1.000000E+00
P 1 1.00
   2.475700E+01     1.000000E+00
P 1 1.00
   9.095100E+00     1.000000E+00
P 1 1.00
   3.341300E+00     1.000000E+00
D 1 1.00
   1.083700E+00     1.000000E+00
D 1 1.00
   4.968000E-01     1.000000E+00
D 1 1.00
   2.278000E-01     1.000000E+00
D 1 1.00
   1.044000E-01     1.000000E+00
D 1 1.00
   2.418400E+01     1.000000E+00
D 1 1.00
   1.142000E+01     1.000000E+00
D 1 1.00
   5.392900E+00     1.000000E+00
D 1 1.00
   2.546600E+00     1.000000E+00
F 1 1.00
   4.917000E-01     1.000000E+00
F 1 1.00
   2.764000E-01     1.000000E+00
F 1 1.00
   1.554000E-01     1.000000E+00
F 1 1.00
   1.316400E+01     1.000000E+00
F 1 1.00
   5.564200E+00     1.000000E+00
F 1 1.00
   2.351900E+00     1.000000E+00
G 1 1.00
   4.427000E-01     1.000000E+00
G 1 1.00
   2.311000E-01     1.000000E+00
G 1 1.00
   9.346800E+00     1.000000E+00
G 1 1.00
   3.516700E+00     1.000000E+00
H 1 1.00
   3.731000E-01     1.000000E+00
H 1 1.00
   6.718000E+00     1.000000E+00
S   1   1.00
      0.0108000              1.0000000
P   1   1.00
      0.0071000              1.0000000
D   1   1.00
      0.0371000              1.0000000
F   1   1.00
      0.0579000              1.0000000
G   1   1.00
      0.0947000              1.0000000
H   1   1.00
      0.1577000              1.0000000
****
$end

$multipole_field
YY -0.0001
$end


--------------------------------------------------------------
 ----------------------------------------------------------------
             Standard Nuclear Orientation (Angstroms)
    I     Atom           X                Y                Z
 ----------------------------------------------------------------
    1      Mg      0.0000000000     0.0000000000     0.0000000000
 ----------------------------------------------------------------
 Nuclear Repulsion Energy =     0.0000000000 hartrees
 There are        6 alpha and        6 beta electrons

 Q-Chem warning in module forms1/BasisType.C, line 1703:

 Setting pure/cartesian flag to 2111 for general basis


 Requested basis set is non-standard
 There are 46 shells and 246 basis functions

 Total QAlloc Memory Limit 128000 MB
 Mega-Array Size      1467 MB
 MEM_STATIC part      1500 MB
 Applying Cartesian multipole field
    Component          Value
    ---------          -----
     (0,2,0)       -1.00000E-04
 Requested basis set is rimp2-cc-pVQZ
 There are 38 shells and 168 basis functions
 A cutoff of  1.0D-14 yielded   1081 shell pairs
 There are     31461 function pairs (     48609 Cartesian)
 
 -------------------------------------------------------
 OpenMP Integral Computing Module                       
 Release: version 1.0, May 2013, Q-Chem Inc. Pittsburgh 
 -------------------------------------------------------
 Integral Job Info:
 Integral job number is                      11
 Integral operator is                         1
 short-range coefficients                     0
 long-range coefficients              100000000
 Omega coefficients                           0
 if combine SR and LR in K                    0
 Integral screening is                        0
 Integral computing path is                   2
 max size of driver memory is           6400000
 size of driver memory is               5498286
 size of scratch memory is             21126762
 max col of scratch BK array             194481
 max len of scratch array in speh3         5572
 max len of scratch index in speh4           72
 max int batch size is                      520
 min int batch size is                       52
 fixed nKL is                                 2
 max L of basis functions is                  5
 order of int derivative is                   0
 number of shells is                         46
 number of basis is                         306
 number of cartesian basis is               306
 number of contracted shell pairs          1081
 number of primitive shell pairs           6667
 maxK2 (contraction) of shell pair          400
 max number of K2 of shell pair               1
 max number of CS2 of shell pair             81
 max number of PS2 of shell pair           1200
 mem total for path MDJ                  876929
 -------------------------------------------------------
 Smallest overlap matrix eigenvalue = 9.28E-06
 Guess MOs from SCF MO coefficient file
 Reading MOs from coefficient file
 Reading MOs from coefficient file
 A restricted hybrid HF-DFT SCF calculation will be
 performed using Geometric Direct Minimization
 Exchange:     0.2000 Hartree-Fock + 0.0800 Slater + 0.7200 B88
 Correlation:  0.1900 VWN1RPA + 0.8100 LYP
 Using Euler-Maclaurin-Lebedev (99,590) quadrature formula
 SCF converges when RMS gradient is below 1.0E-08
Using Q-Chem read-in guess as SCF_GUESS READ specified.

 using 8 threads for integral computing
 -------------------------------------------------------
 OpenMP Integral computing Module                
 Release: version 2.0, May 2017, Q-Chem Inc. Pleasanton 
 -------------------------------------------------------
 LTot/LBra/LKet=          20          10          10
 LTot/LBra/LKet=          20          10          10

 Q-Chem warning:

 in GenH1, ket side, handled with new code

 LTot/LBra/LKet=          19           9          10
 LTot/LBra/LKet=          19           9          10

 Q-Chem warning:

 in GenH1, ket side, handled with new code

 LTot/LBra/LKet=          19           9          10
 LTot/LBra/LKet=          19           9          10
 LTot/LBra/LKet=          19           9          10

 Q-Chem warning:

 in GenH1, ket side, handled with new code


 Q-Chem warning:

 in GenH1, ket side, handled with new code

 LTot/LBra/LKet=          20          10          10

 Q-Chem warning:

 in GenH1, ket side, handled with new code


 Q-Chem warning:

 in GenH1, ket side, handled with new code


 Q-Chem warning:

 in GenH1, ket side, handled with new code


 Q-Chem warning:

 in GenH1, ket side, handled with new code

 LTot/LBra/LBra=          20          10          10

 Q-Chem warning:

 in GenH1, bra side, handled with new code

TIMEINFO->: J/JK contribution 377.25 sec.
 -------------------------------------------------------
 OpenMP BLAS3 based DFT computing Module                
 Release: version 1.0, May 2013, Q-Chem Inc. Pittsburgh 
 -------------------------------------------------------
 ---------------------------------------
  Cycle       Energy        RMS Gradient
 ---------------------------------------
    1    -200.1025061669      2.51E-03 Normal BFGS step
TIMEINFO->: J/JK contribution 347.36 sec.
    2    -200.1025176825      4.12E-04 Normal BFGS step
TIMEINFO->: J/JK contribution 338.67 sec.
    3    -200.1025179695      4.54E-05 Normal BFGS step
TIMEINFO->: J/JK contribution 331.64 sec.
    4    -200.1025179930      1.83E-05 Normal BFGS step
TIMEINFO->: J/JK contribution 340.07 sec.
    5    -200.1025179957      2.60E-06 Normal BFGS step
TIMEINFO->: J/JK contribution 289.53 sec.
    6    -200.1025179957      1.71E-07 Normal BFGS step
TIMEINFO->: J/JK contribution 263.12 sec.
    7    -200.1025179957      7.53E-09 Convergence criterion met
[...]
 max int batch size is                      520
 min int batch size is                       52
 fixed nKL is                                 2
 max L of basis functions is                  5
 order of int derivative is                   0
 number of shells is                         46
 number of basis is                         306
 number of cartesian basis is               306
 number of contracted shell pairs          1081
 number of primitive shell pairs           6667
 maxK2 (contraction) of shell pair          400
 max number of K2 of shell pair               1
 max number of CS2 of shell pair             81
 max number of PS2 of shell pair           1200
 mem total for path MDJ                  876929
 -------------------------------------------------------
 Smallest overlap matrix eigenvalue = 9.28E-06
 Guess MOs from SCF MO coefficient file
 Reading MOs from coefficient file
 Reading MOs from coefficient file
 A restricted hybrid HF-DFT SCF calculation will be
 performed using Geometric Direct Minimization
 Exchange:     0.2000 Hartree-Fock + 0.0800 Slater + 0.7200 B88
 Correlation:  0.1900 VWN1RPA + 0.8100 LYP
 Using Euler-Maclaurin-Lebedev (99,590) quadrature formula
 SCF converges when RMS gradient is below 1.0E-08
Using Q-Chem read-in guess as SCF_GUESS READ specified.

 using 8 threads for integral computing
 -------------------------------------------------------
 OpenMP Integral computing Module                
 Release: version 2.0, May 2017, Q-Chem Inc. Pleasanton 
 -------------------------------------------------------
 LTot/LBra/LKet=          20          10          10
 LTot/LBra/LKet=          20          10          10
 LTot/LBra/LKet=          19           9          10

 Q-Chem warning:

 in GenH1, ket side, handled with new code


 Q-Chem warning:

 in GenH1, ket side, handled with new code

 LTot/LBra/LKet=          19           9          10
 LTot/LBra/LKet=          19           9          10
 LTot/LBra/LKet=          19           9          10
 LTot/LBra/LKet=          20          10          10
 LTot/LBra/LKet=          19           9          10

 Q-Chem warning:

 in GenH1, ket side, handled with new code


 Q-Chem warning:

 in GenH1, ket side, handled with new code


 Q-Chem warning:

 in GenH1, ket side, handled with new code


 Q-Chem warning:

 in GenH1, ket side, handled with new code


 Q-Chem warning:

 in GenH1, ket side, handled with new code


 Q-Chem warning:

 in GenH1, ket side, handled with new code

 LTot/LBra/LBra=          20          10          10

 Q-Chem warning:

 in GenH1, bra side, handled with new code

TIMEINFO->: J/JK contribution 353.35 sec.
 -------------------------------------------------------
 OpenMP BLAS3 based DFT computing Module                
 Release: version 1.0, May 2013, Q-Chem Inc. Pittsburgh 
 -------------------------------------------------------
 ---------------------------------------
  Cycle       Energy        RMS Gradient
 ---------------------------------------
    1    -200.1043892443      1.58E-03 Normal BFGS step
TIMEINFO->: J/JK contribution 378.43 sec.
    2    -200.1043949101      2.23E-04 Normal BFGS step
TIMEINFO->: J/JK contribution 353.84 sec.
    3    -200.1043950420      3.87E-05 Normal BFGS step
TIMEINFO->: J/JK contribution 336.29 sec.
    4    -200.1043950585      1.25E-05 Normal BFGS step
TIMEINFO->: J/JK contribution 343.01 sec.
    5    -200.1043950595      1.17E-06 Normal BFGS step
TIMEINFO->: J/JK contribution 308.71 sec.
    6    -200.1043950596      9.30E-08 Normal BFGS step
TIMEINFO->: J/JK contribution 248.66 sec.
    7    -200.1043950596      7.05E-09 Convergence criterion met
 ---------------------------------------
 B3LYP orbitals are now ready for the XYGJ-OS calculation.
 XYGJ-OS energy = Exch (0.7731 HF  + 0.2269 Slater) + 
                  Corr (0.2754 LYP + 0.2309 VWN1RPA + 0.4364 OS-MP2)
 SCF time:  CPU 2354.44 s  wall 296.16 s
 SCF   energy in the final basis set = -199.68638588
 Total energy in the final basis set = -199.68638588
 Entering Scaled Opposite Spin MP2
 NBasAux in rimp2.F =          168

 OS-MP2 job begins now...

 SOS scaling factor =  0.4
 Form (P|Q)**(-1/2)...

 Q-Chem fatal error occurred in module libmdc/qalloc.C, line 49:

 Illegal memory length in mega_alloc


 Please submit a crash report at q-chem.com/reporter 
 
 
 
User input: 7 of 7 
 
Q-Chem Developer Version!
                  Welcome to Q-Chem
     A Quantum Leap Into The Future Of Chemistry


 Q-Chem 5.1, Q-Chem, Inc., Pleasanton, CA (2018)

 Yihan Shao,  Zhengting Gan,  E. Epifanovsky,  A. T. B. Gilbert,  M. Wormit,  
 J. Kussmann,  A. W. Lange,  A. Behn,  Jia Deng,  Xintian Feng,  D. Ghosh,  
 M. Goldey,  P. R. Horn,  L. D. Jacobson,  I. Kaliman,  T. Kus,  A. Landau,  
 Jie Liu,  E. I. Proynov,  R. M. Richard,  R. P. Steele,  E. J. Sundstrom,  
 H. L. Woodcock III,  P. M. Zimmerman,  D. Zuev,  B. Albrecht,  E. Alguire,  
 S. A. Baeppler,  D. Barton,  Z. Benda,  Y. A. Bernard,  E. J. Berquist,  
 K. B. Bravaya,  H. Burton,  D. Casanova,  Chun-Min Chang,  Yunqing Chen,  
 A. Chien,  K. D. Closser,  M. P. Coons,  S. Coriani,  S. Dasgupta,  
 A. L. Dempwolff,  M. Diedenhofen,  Hainam Do,  R. G. Edgar,  Po-Tung Fang,  
 S. Faraji,  S. Fatehi,  Qingguo Feng,  K. D. Fenk,  J. Fosso-Tande,  
 Qinghui Ge,  A. Ghysels,  G. Gidofalvi,  J. Gomes,  J. Gonthier,  A. Gunina,  
 D. Hait,  M. W. D. Hanson-Heine,  P. H. P. Harbach,  A. W. Hauser,  
 J. E. Herr,  E. G. Hohenstein,  Z. C. Holden,  Kerwin Hui,  B. C. Huynh,  
 T.-C. Jagau,  Hyunjun Ji,  B. Kaduk,  K. Khistyaev,  Jaehoon Kim,  
 P. Klunzinger,  K. Koh,  D. Kosenkov,  L. Koulias,  T. Kowalczyk,  
 C. M. Krauter,  A. Kunitsa,  Ka Un Lao,  A. Laurent,  K. V. Lawler,  
 Joonho Lee,  D. Lefrancois,  S. Lehtola,  D. S. Levine,  Yi-Pei Li,  
 You-Sheng Lin,  Fenglai Liu,  E. Livshits,  A. Luenser,  P. Manohar,  
 E. Mansoor,  S. F. Manzer,  Shan-Ping Mao,  Yuezhi Mao,  N. Mardirossian,  
 A. V. Marenich,  T. Markovich,  L. A. Martinez-Martinez,  S. A. Maurer,  
 N. J. Mayhall,  S. C. McKenzie,  J.-M. Mewes,  A. F. Morrison,  
 J. W. Mullinax,  K. Nanda,  T. S. Nguyen-Beck,  R. Olivares-Amaya,  
 J. A. Parkhill,  T. M. Perrine,  F. Plasser,  P. Pokhilko,  S. Prager,  
 A. Prociuk,  E. Ramos,  D. R. Rehn,  F. Rob,  M. Schneider,  N. Sergueev,  
 S. M. Sharada,  S. Sharma,  D. W. Small,  T. Stauch,  T. Stein,  
 Yu-Chuan Su,  A. J. W. Thom,  A. Tkatchenko,  T. Tsuchimochi,  N. M. Tubman,  
 L. Vogt,  M. L. Vidal,  O. Vydrov,  M. A. Watson,  J. Wenzel,  
 M. de Wergifosse,  T. A. Wesolowski,  A. White,  J. Witte,  A. Yamada,  
 Jun Yang,  K. Yao,  S. Yeganeh,  S. R. Yost,  Zhi-Qiang You,  A. Zech,  
 Igor Ying Zhang,  Xing Zhang,  Yan Zhao,  Ying Zhu,  B. R. Brooks,  
 G. K. L. Chan,  C. J. Cramer,  M. S. Gordon,  W. J. Hehre,  A. Klamt,  
 M. W. Schmidt,  C. D. Sherrill,  D. G. Truhlar,  A. Aspuru-Guzik,  R. Baer,  
 A. T. Bell,  N. A. Besley,  Jeng-Da Chai,  A. E. DePrince, III,  
 R. A. DiStasio Jr.,  A. Dreuw,  B. D. Dunietz,  T. R. Furlani,  
 Chao-Ping Hsu,  Yousung Jung,  Jing Kong,  D. S. Lambrecht,  WanZhen Liang,  
 C. Ochsenfeld,  V. A. Rassolov,  L. V. Slipchenko,  J. E. Subotnik,  
 T. Van Voorhis,  J. M. Herbert,  A. I. Krylov,  P. M. W. Gill,  M. Head-Gordon

 Contributors to earlier versions of Q-Chem not listed above: 
 R. D. Adamson,  B. Austin,  J. Baker,  G. J. O. Beran,  K. Brandhorst,  
 S. T. Brown,  E. F. C. Byrd,  A. K. Chakraborty,  C.-L. Cheng,  
 Siu Hung Chien,  D. M. Chipman,  D. L. Crittenden,  H. Dachsel,  
 R. J. Doerksen,  A. D. Dutoi,  L. Fusti-Molnar,  W. A. Goddard III,  
 A. Golubeva-Zadorozhnaya,  S. R. Gwaltney,  G. Hawkins,  A. Heyden,  
 S. Hirata,  G. Kedziora,  F. J. Keil,  C. Kelley,  Jihan Kim,  R. A. King,  
 R. Z. Khaliullin,  P. P. Korambath,  W. Kurlancheek,  A. M. Lee,  M. S. Lee,  
 S. V. Levchenko,  Ching Yeh Lin,  D. Liotard,  R. C. Lochan,  I. Lotan,  
 P. E. Maslen,  N. Nair,  D. P. O'Neill,  D. Neuhauser,  E. Neuscamman,  
 C. M. Oana,  R. Olson,  B. Peters,  R. Peverati,  P. A. Pieniazek,  
 Y. M. Rhee,  J. Ritchie,  M. A. Rohrdanz,  E. Rosta,  N. J. Russ,  
 H. F. Schaefer III,  N. E. Schultz,  N. Shenvi,  A. C. Simmonett,  A. Sodt,  
 D. Stuck,  K. S. Thanthiriwatte,  V. Vanovschi,  Tao Wang,  A. Warshel,  
 C. F. Williams,  Q. Wu,  X. Xu,  W. Zhang

 Please cite Q-Chem as follows:
 Y. Shao et al., Mol. Phys. 113, 184-215 (2015)
 DOI: 10.1080/00268976.2014.952696

 Q-Chem 5.1.1 for Intel X86 EM64T Linux

 Parts of Q-Chem use Armadillo 8.300.2 (Tropical Shenanigans).
 http://arma.sourceforge.net/

 Q-Chem begins on Fri Oct 23 20:23:28 2020  

Host: n0054.mhg0
0

     Scratch files written to /local/scratch/users/yhljason/Mg_XYGJOS_aug-cc-pcV5Z.inp20201023194314//
The previous job contains 0 fragments, simply inherited here
Input Ideriv = 2
Curr. Ideriv = -1
Max.  Ideriv = 2

Checking the input file for inconsistencies... 	...done.

--------------------------------------------------------------
User input:
--------------------------------------------------------------
$molecule
read
$end

$rem

jobtype sp
exchange XYGJOS
xc_grid 000099000590
basis gen
aux_basis rimp2-cc-pVQZ
max_scf_cycles 200
thresh 14
scf_convergence 8
mem_total 128000
cc_memory 96000
cc_backend xm
mem_static 1500
symmetry false
sym_ignore true
scf_guess read
unrestricted false
scf_algorithm gdm
n_frozen_core 1000
$end

$basis
****
Mg     0
S 20 1.00
   2.968000E+06     1.971770E-06
   4.443000E+05     1.533620E-05
   1.011000E+05     8.068520E-05
   2.864000E+04     3.407710E-04
   9.343000E+03     1.241940E-03
   3.373000E+03     4.041240E-03
   1.316000E+03     1.197970E-02
   5.458000E+02     3.242530E-02
   2.381000E+02     7.893320E-02
   1.082000E+02     1.665750E-01
   5.080000E+01     2.828710E-01
   2.448000E+01     3.318900E-01
   1.193000E+01     2.032870E-01
   5.543000E+00     3.828970E-02
   2.675000E+00     3.089160E-04
   1.263000E+00     1.389070E-03
   5.883000E-01    -1.361590E-04
   1.496000E-01     8.553220E-05
   6.700000E-02    -5.691020E-05
   2.952000E-02     1.772590E-05
S 20 1.00
   2.968000E+06    -4.981600E-07
   4.443000E+05    -3.875630E-06
   1.011000E+05    -2.038540E-05
   2.864000E+04    -8.616590E-05
   9.343000E+03    -3.141760E-04
   3.373000E+03    -1.025770E-03
   1.316000E+03    -3.058160E-03
   5.458000E+02    -8.410630E-03
   2.381000E+02    -2.112020E-02
   1.082000E+02    -4.768820E-02
   5.080000E+01    -9.241190E-02
   2.448000E+01    -1.425480E-01
   1.193000E+01    -1.261680E-01
   5.543000E+00     7.152820E-02
   2.675000E+00     3.830390E-01
   1.263000E+00     4.901330E-01
   5.883000E-01     2.043810E-01
   1.496000E-01     7.022310E-03
   6.700000E-02    -2.678740E-03
   2.952000E-02     6.936900E-04
S 1 1.00
   1.193000E+01     1.000000E+00
S 1 1.00
   5.543000E+00     1.000000E+00
S 1 1.00
   2.675000E+00     1.000000E+00
S 1 1.00
   1.263000E+00     1.000000E+00
S 1 1.00
   5.883000E-01     1.000000E+00
S 1 1.00
   1.496000E-01     1.000000E+00
S 1 1.00
   6.700000E-02     1.000000E+00
S 1 1.00
   2.952000E-02     1.000000E+00
P 14 1.00
   1.441000E+03     1.524070E-04
   3.414000E+02     1.327640E-03
   1.107000E+02     7.219370E-03
   4.197000E+01     2.852050E-02
   1.749000E+01     8.653460E-02
   7.753000E+00     1.949500E-01
   3.534000E+00     3.120510E-01
   1.614000E+00     3.484760E-01
   7.299000E-01     2.188860E-01
   3.029000E-01     4.355790E-02
   1.583000E-01    -3.737470E-03
   8.190000E-02     3.051230E-03
   4.123000E-02    -8.669220E-04
   1.988000E-02     2.305170E-04
P 14 1.00
   1.441000E+03    -2.410310E-05
   3.414000E+02    -2.108090E-04
   1.107000E+02    -1.145300E-03
   4.197000E+01    -4.564170E-03
   1.749000E+01    -1.396030E-02
   7.753000E+00    -3.211050E-02
   3.534000E+00    -5.162170E-02
   1.614000E+00    -6.137130E-02
   7.299000E-01    -4.424650E-02
   3.029000E-01     5.231910E-02
   1.583000E-01     2.216920E-01
   8.190000E-02     3.952550E-01
   4.123000E-02     3.640780E-01
   1.988000E-02     9.779520E-02
P 1 1.00
   1.583000E-01     1.000000E+00
P 1 1.00
   8.190000E-02     1.000000E+00
P 1 1.00
   4.123000E-02     1.000000E+00
P 1 1.00
   1.988000E-02     1.000000E+00
P 1 1.00
   6.738800E+01     1.000000E+00
P 1 1.00
   2.475700E+01     1.000000E+00
P 1 1.00
   9.095100E+00     1.000000E+00
P 1 1.00
   3.341300E+00     1.000000E+00
D 1 1.00
   1.083700E+00     1.000000E+00
D 1 1.00
   4.968000E-01     1.000000E+00
D 1 1.00
   2.278000E-01     1.000000E+00
D 1 1.00
   1.044000E-01     1.000000E+00
D 1 1.00
   2.418400E+01     1.000000E+00
D 1 1.00
   1.142000E+01     1.000000E+00
D 1 1.00
   5.392900E+00     1.000000E+00
D 1 1.00
   2.546600E+00     1.000000E+00
F 1 1.00
   4.917000E-01     1.000000E+00
F 1 1.00
   2.764000E-01     1.000000E+00
F 1 1.00
   1.554000E-01     1.000000E+00
F 1 1.00
   1.316400E+01     1.000000E+00
F 1 1.00
   5.564200E+00     1.000000E+00
F 1 1.00
   2.351900E+00     1.000000E+00
G 1 1.00
   4.427000E-01     1.000000E+00
G 1 1.00
   2.311000E-01     1.000000E+00
G 1 1.00
   9.346800E+00     1.000000E+00
G 1 1.00
   3.516700E+00     1.000000E+00
H 1 1.00
   3.731000E-01     1.000000E+00
H 1 1.00
   6.718000E+00     1.000000E+00
S   1   1.00
      0.0108000              1.0000000
P   1   1.00
      0.0071000              1.0000000
D   1   1.00
      0.0371000              1.0000000
F   1   1.00
      0.0579000              1.0000000
G   1   1.00
      0.0947000              1.0000000
H   1   1.00
      0.1577000              1.0000000
****
$end

$multipole_field
ZZ -0.0001
$end

--------------------------------------------------------------
 ----------------------------------------------------------------
             Standard Nuclear Orientation (Angstroms)
    I     Atom           X                Y                Z
 ----------------------------------------------------------------
    1      Mg      0.0000000000     0.0000000000     0.0000000000
 ----------------------------------------------------------------
 Nuclear Repulsion Energy =     0.0000000000 hartrees
 There are        6 alpha and        6 beta electrons

 Q-Chem warning in module forms1/BasisType.C, line 1703:

 Setting pure/cartesian flag to 2111 for general basis


 Requested basis set is non-standard
 There are 46 shells and 246 basis functions

 Total QAlloc Memory Limit 128000 MB
 Mega-Array Size      1467 MB
 MEM_STATIC part      1500 MB
 Applying Cartesian multipole field
    Component          Value
    ---------          -----
     (0,0,2)       -1.00000E-04
 Requested basis set is rimp2-cc-pVQZ
 There are 38 shells and 168 basis functions
 A cutoff of  1.0D-14 yielded   1081 shell pairs
 There are     31461 function pairs (     48609 Cartesian)
 
 -------------------------------------------------------
 OpenMP Integral Computing Module                       
 Release: version 1.0, May 2013, Q-Chem Inc. Pittsburgh 
 -------------------------------------------------------
 Integral Job Info:
 Integral job number is                      11
 Integral operator is                         1
 short-range coefficients                     0
 long-range coefficients              100000000
 Omega coefficients                           0
 if combine SR and LR in K                    0
 Integral screening is                        0
 Integral computing path is                   2
 max size of driver memory is           6400000
 size of driver memory is               5498286
 size of scratch memory is             21126762
 max col of scratch BK array             194481
 max len of scratch array in speh3         5572
 max len of scratch index in speh4           72
 max int batch size is                      520
 min int batch size is                       52
 fixed nKL is                                 2
 max L of basis functions is                  5
 order of int derivative is                   0
 number of shells is                         46
 number of basis is                         306
 number of cartesian basis is               306
 number of contracted shell pairs          1081
 number of primitive shell pairs           6667
 maxK2 (contraction) of shell pair          400
 max number of K2 of shell pair               1
 max number of CS2 of shell pair             81
 max number of PS2 of shell pair           1200
 mem total for path MDJ                  876929
 -------------------------------------------------------
 Smallest overlap matrix eigenvalue = 9.28E-06
 Guess MOs from SCF MO coefficient file
 Reading MOs from coefficient file
 Reading MOs from coefficient file
 A restricted hybrid HF-DFT SCF calculation will be
 performed using Geometric Direct Minimization
 Exchange:     0.2000 Hartree-Fock + 0.0800 Slater + 0.7200 B88
 Correlation:  0.1900 VWN1RPA + 0.8100 LYP
 Using Euler-Maclaurin-Lebedev (99,590) quadrature formula
 SCF converges when RMS gradient is below 1.0E-08
Using Q-Chem read-in guess as SCF_GUESS READ specified.

 using 8 threads for integral computing
 -------------------------------------------------------
 OpenMP Integral computing Module                
 Release: version 2.0, May 2017, Q-Chem Inc. Pleasanton 
 -------------------------------------------------------
 LTot/LBra/LKet=          20          10          10
 LTot/LBra/LKet=          20          10          10
 LTot/LBra/LKet=          19           9          10

 Q-Chem warning:

 in GenH1, ket side, handled with new code

 LTot/LBra/LKet=          19           9          10

 Q-Chem warning:

 in GenH1, ket side, handled with new code

 LTot/LBra/LKet=          20          10          10
 LTot/LBra/LKet=          19           9          10

 Q-Chem warning:

 in GenH1, ket side, handled with new code


 Q-Chem warning:

 in GenH1, ket side, handled with new code

 LTot/LBra/LKet=          19           9          10

 Q-Chem warning:

 in GenH1, ket side, handled with new code


 Q-Chem warning:

 in GenH1, ket side, handled with new code

 LTot/LBra/LKet=          19           9          10

 Q-Chem warning:

 in GenH1, ket side, handled with new code


 Q-Chem warning:

 in GenH1, ket side, handled with new code

 LTot/LBra/LBra=          20          10          10

 Q-Chem warning:

 in GenH1, bra side, handled with new code

TIMEINFO->: J/JK contribution 377.92 sec.
 -------------------------------------------------------
 OpenMP BLAS3 based DFT computing Module                
 Release: version 1.0, May 2013, Q-Chem Inc. Pittsburgh 
 -------------------------------------------------------
 ---------------------------------------
  Cycle       Energy        RMS Gradient
 ---------------------------------------
    1    -200.1025061669      2.51E-03 Normal BFGS step
TIMEINFO->: J/JK contribution 380.17 sec.
    2    -200.1025176825      4.12E-04 Normal BFGS step
TIMEINFO->: J/JK contribution 337.51 sec.
    3    -200.1025179695      4.54E-05 Normal BFGS step
TIMEINFO->: J/JK contribution 329.38 sec.
    4    -200.1025179930      1.83E-05 Normal BFGS step
TIMEINFO->: J/JK contribution 328.99 sec.
    5    -200.1025179957      2.60E-06 Normal BFGS step
TIMEINFO->: J/JK contribution 296.07 sec.
    6    -200.1025179957      1.71E-07 Normal BFGS step
TIMEINFO->: J/JK contribution 250.65 sec.
    7    -200.1025179957      7.53E-09 Convergence criterion met
 ---------------------------------------
 B3LYP orbitals are now ready for the XYGJ-OS calculation.
 XYGJ-OS energy = Exch (0.7731 HF  + 0.2269 Slater) + 
                  Corr (0.2754 LYP + 0.2309 VWN1RPA + 0.4364 OS-MP2)
 SCF time:  CPU 2331.31 s  wall 293.23 s
 SCF   energy in the final basis set = -199.68446258
 Total energy in the final basis set = -199.68446258
 Entering Scaled Opposite Spin MP2
 NBasAux in rimp2.F =          168

 OS-MP2 job begins now...

 SOS scaling factor =  0.4
 Form (P|Q)**(-1/2)...

 Q-Chem fatal error occurred in module libmdc/qalloc.C, line 49:

 Illegal memory length in mega_alloc


 Please submit a crash report at q-chem.com/reporter 
 
 
