Q-Chem Developer Version!
                  Welcome to Q-Chem
     A Quantum Leap Into The Future Of Chemistry


 Q-Chem 5.1, Q-Chem, Inc., Pleasanton, CA (2018)

 Yihan Shao,  Zhengting Gan,  E. Epifanovsky,  A. T. B. Gilbert,  M. Wormit,  
 J. Kussmann,  A. W. Lange,  A. Behn,  Jia Deng,  Xintian Feng,  D. Ghosh,  
 M. Goldey,  P. R. Horn,  L. D. Jacobson,  I. Kaliman,  T. Kus,  A. Landau,  
 Jie Liu,  E. I. Proynov,  R. M. Richard,  R. P. Steele,  E. J. Sundstrom,  
 H. L. Woodcock III,  P. M. Zimmerman,  D. Zuev,  B. Albrecht,  E. Alguire,  
 S. A. Baeppler,  D. Barton,  Z. Benda,  Y. A. Bernard,  E. J. Berquist,  
 K. B. Bravaya,  H. Burton,  D. Casanova,  Chun-Min Chang,  Yunqing Chen,  
 A. Chien,  K. D. Closser,  M. P. Coons,  S. Coriani,  S. Dasgupta,  
 A. L. Dempwolff,  M. Diedenhofen,  Hainam Do,  R. G. Edgar,  Po-Tung Fang,  
 S. Faraji,  S. Fatehi,  Qingguo Feng,  K. D. Fenk,  J. Fosso-Tande,  
 Qinghui Ge,  A. Ghysels,  G. Gidofalvi,  J. Gomes,  J. Gonthier,  A. Gunina,  
 D. Hait,  M. W. D. Hanson-Heine,  P. H. P. Harbach,  A. W. Hauser,  
 J. E. Herr,  E. G. Hohenstein,  Z. C. Holden,  Kerwin Hui,  B. C. Huynh,  
 T.-C. Jagau,  Hyunjun Ji,  B. Kaduk,  K. Khistyaev,  Jaehoon Kim,  
 P. Klunzinger,  K. Koh,  D. Kosenkov,  L. Koulias,  T. Kowalczyk,  
 C. M. Krauter,  A. Kunitsa,  Ka Un Lao,  A. Laurent,  K. V. Lawler,  
 Joonho Lee,  D. Lefrancois,  S. Lehtola,  D. S. Levine,  Yi-Pei Li,  
 You-Sheng Lin,  Fenglai Liu,  E. Livshits,  A. Luenser,  P. Manohar,  
 E. Mansoor,  S. F. Manzer,  Shan-Ping Mao,  Yuezhi Mao,  N. Mardirossian,  
 A. V. Marenich,  T. Markovich,  L. A. Martinez-Martinez,  S. A. Maurer,  
 N. J. Mayhall,  S. C. McKenzie,  J.-M. Mewes,  A. F. Morrison,  
 J. W. Mullinax,  K. Nanda,  T. S. Nguyen-Beck,  R. Olivares-Amaya,  
 J. A. Parkhill,  T. M. Perrine,  F. Plasser,  P. Pokhilko,  S. Prager,  
 A. Prociuk,  E. Ramos,  D. R. Rehn,  F. Rob,  M. Schneider,  N. Sergueev,  
 S. M. Sharada,  S. Sharma,  D. W. Small,  T. Stauch,  T. Stein,  
 Yu-Chuan Su,  A. J. W. Thom,  A. Tkatchenko,  T. Tsuchimochi,  N. M. Tubman,  
 L. Vogt,  M. L. Vidal,  O. Vydrov,  M. A. Watson,  J. Wenzel,  
 M. de Wergifosse,  T. A. Wesolowski,  A. White,  J. Witte,  A. Yamada,  
 Jun Yang,  K. Yao,  S. Yeganeh,  S. R. Yost,  Zhi-Qiang You,  A. Zech,  
 Igor Ying Zhang,  Xing Zhang,  Yan Zhao,  Ying Zhu,  B. R. Brooks,  
 G. K. L. Chan,  C. J. Cramer,  M. S. Gordon,  W. J. Hehre,  A. Klamt,  
 M. W. Schmidt,  C. D. Sherrill,  D. G. Truhlar,  A. Aspuru-Guzik,  R. Baer,  
 A. T. Bell,  N. A. Besley,  Jeng-Da Chai,  A. E. DePrince, III,  
 R. A. DiStasio Jr.,  A. Dreuw,  B. D. Dunietz,  T. R. Furlani,  
 Chao-Ping Hsu,  Yousung Jung,  Jing Kong,  D. S. Lambrecht,  WanZhen Liang,  
 C. Ochsenfeld,  V. A. Rassolov,  L. V. Slipchenko,  J. E. Subotnik,  
 T. Van Voorhis,  J. M. Herbert,  A. I. Krylov,  P. M. W. Gill,  M. Head-Gordon

 Contributors to earlier versions of Q-Chem not listed above: 
 R. D. Adamson,  B. Austin,  J. Baker,  G. J. O. Beran,  K. Brandhorst,  
 S. T. Brown,  E. F. C. Byrd,  A. K. Chakraborty,  C.-L. Cheng,  
 Siu Hung Chien,  D. M. Chipman,  D. L. Crittenden,  H. Dachsel,  
 R. J. Doerksen,  A. D. Dutoi,  L. Fusti-Molnar,  W. A. Goddard III,  
 A. Golubeva-Zadorozhnaya,  S. R. Gwaltney,  G. Hawkins,  A. Heyden,  
 S. Hirata,  G. Kedziora,  F. J. Keil,  C. Kelley,  Jihan Kim,  R. A. King,  
 R. Z. Khaliullin,  P. P. Korambath,  W. Kurlancheek,  A. M. Lee,  M. S. Lee,  
 S. V. Levchenko,  Ching Yeh Lin,  D. Liotard,  R. C. Lochan,  I. Lotan,  
 P. E. Maslen,  N. Nair,  D. P. O'Neill,  D. Neuhauser,  E. Neuscamman,  
 C. M. Oana,  R. Olson,  B. Peters,  R. Peverati,  P. A. Pieniazek,  
 Y. M. Rhee,  J. Ritchie,  M. A. Rohrdanz,  E. Rosta,  N. J. Russ,  
 H. F. Schaefer III,  N. E. Schultz,  N. Shenvi,  A. C. Simmonett,  A. Sodt,  
 D. Stuck,  K. S. Thanthiriwatte,  V. Vanovschi,  Tao Wang,  A. Warshel,  
 C. F. Williams,  Q. Wu,  X. Xu,  W. Zhang

 Please cite Q-Chem as follows:
 Y. Shao et al., Mol. Phys. 113, 184-215 (2015)
 DOI: 10.1080/00268976.2014.952696

 Q-Chem 5.1.1 for Intel X86 EM64T Linux

 Parts of Q-Chem use Armadillo 8.300.2 (Tropical Shenanigans).
 http://arma.sourceforge.net/

 Q-Chem begins on Fri Oct 23 03:22:56 2020  

Host: n0090.mhg0
0

     Scratch files written to /local/scratch/users/yhljason/N_XYG3_aug-cc-pcV5Z.inp20201023032254//
Input Ideriv = 1
Curr. Ideriv = -1
Max.  Ideriv = 1

Checking the input file for inconsistencies... 	...done.

--------------------------------------------------------------
User input:
--------------------------------------------------------------
$molecule
0 4
N
$end

$rem
jobtype sp
exchange XYG3
xc_grid 000099000590
basis aug-cc-pcV5Z

max_scf_cycles 200
thresh 14
scf_convergence 8
scf_algorithm gdm
symmetry false
sym_ignore true
unrestricted false
gen_scfman false
internal_stability_iter 15
internal_stability_davidson_iter 200
mem_total 128000
cc_memory 96000
cc_backend xm
mem_static 1500
n_frozen_core 1000
$end



--------------------------------------------------------------
 ----------------------------------------------------------------
             Standard Nuclear Orientation (Angstroms)
    I     Atom           X                Y                Z
 ----------------------------------------------------------------
    1      N       0.0000000000     0.0000000000     0.0000000000
 ----------------------------------------------------------------
 Nuclear Repulsion Energy =     0.0000000000 hartrees
 There are        5 alpha and        2 beta electrons
 Requested basis set is aug-cc-pCV5Z
 There are 41 shells and 181 basis functions

 Total QAlloc Memory Limit 128000 MB
 Mega-Array Size      1467 MB
 MEM_STATIC part      1500 MB
 A cutoff of  1.0D-14 yielded    861 shell pairs
 There are     16961 function pairs (     32886 Cartesian)
 
 -------------------------------------------------------
 OpenMP Integral Computing Module                       
 Release: version 1.0, May 2013, Q-Chem Inc. Pittsburgh 
 -------------------------------------------------------
 Integral Job Info:
 Integral job number is                      11
 Integral operator is                         1
 short-range coefficients                     0
 long-range coefficients              100000000
 Omega coefficients                           0
 if combine SR and LR in K                    0
 Integral screening is                        0
 Integral computing path is                   2
 max size of driver memory is           6400000
 size of driver memory is               5498286
 size of scratch memory is             29551430
 max col of scratch BK array             194481
 max len of scratch array in speh3         5572
 max len of scratch index in speh4           72
 max int batch size is                      520
 min int batch size is                       52
 fixed nKL is                                30
 max L of basis functions is                  5
 order of int derivative is                   0
 number of shells is                         41
 number of basis is                         251
 number of cartesian basis is               251
 number of contracted shell pairs           861
 number of primitive shell pairs           2049
 maxK2 (contraction) of shell pair          100
 max number of K2 of shell pair               1
 max number of CS2 of shell pair             81
 max number of PS2 of shell pair            300
 mem total for path MDJ                  815924
 -------------------------------------------------------
 Smallest overlap matrix eigenvalue = 1.87E-05

 Scale SEOQF with 1.000000e-01/1.000000e-01/1.000000e-01

 Standard Electronic Orientation quadrupole field applied
 Constructing guess Fock matrix from core Hamiltonian
 Applying Wolfsberg-Helmholtz approximation
 A restricted hybrid HF-DFT SCF calculation will be
 performed using Geometric Direct Minimization
 Exchange:     0.2000 Hartree-Fock + 0.0800 Slater + 0.7200 B88
 Correlation:  0.1900 VWN1RPA + 0.8100 LYP
 Using Euler-Maclaurin-Lebedev (99,590) quadrature formula
 SCF converges when RMS gradient is below 1.0E-08
 using 8 threads for integral computing
 -------------------------------------------------------
 OpenMP Integral computing Module                
 Release: version 2.0, May 2017, Q-Chem Inc. Pleasanton 
 -------------------------------------------------------
 LTot/LBra/LKet=          16           6          10
 LTot/LBra/LKet=          15           6           9

 Q-Chem warning:

 in GenH1, ket side, handled with new code


 Q-Chem warning:

 in GenH1, ket side, handled with new code

TIMEINFO->: J/JK contribution 28.02 sec.
 -------------------------------------------------------
 OpenMP BLAS3 based DFT computing Module                
 Release: version 1.0, May 2013, Q-Chem Inc. Pittsburgh 
 -------------------------------------------------------
 ---------------------------------------
  Cycle       Energy        RMS Gradient
 ---------------------------------------
    1    2904.2211109498      6.54E+01 Descent step
 LTot/LBra/LBra=          18           9           9

 Q-Chem warning:

 in GenH1, bra side, handled with new code

TIMEINFO->: J/JK contribution 125.52 sec.
    2    2870.8519110665      1.05E+03 Line search: understep
TIMEINFO->: J/JK contribution 130.12 sec.
    3    2571.6688348417      4.13E+01 Descent step
TIMEINFO->: J/JK contribution 128.21 sec.
    4    2548.5259729583      1.34E+02 Line search: understep
TIMEINFO->: J/JK contribution 130.60 sec.
    5    2343.6223455834      4.05E+01 Line search: understep
TIMEINFO->: J/JK contribution 131.68 sec.
    6    1418.4774775882      1.31E+01 Descent step
TIMEINFO->: J/JK contribution 131.29 sec.
    7    1409.4961233236      5.15E+00 Line search: understep
TIMEINFO->: J/JK contribution 132.01 sec.
   GDM::BFGS:   rebuilding Hinv to be positive definite
    8    1325.6410613057      2.06E+01 Descent step
TIMEINFO->: J/JK contribution 131.64 sec.
    9    1314.3015233194      7.08E+00 Line search: understep
TIMEINFO->: J/JK contribution 131.61 sec.
   GDM::BFGS:   rebuilding Hinv to be positive definite
   10    1207.3703037080      1.38E+01 Descent step
TIMEINFO->: J/JK contribution 131.42 sec.
   11    1199.0119324809      1.12E+01 Line search: understep
TIMEINFO->: J/JK contribution 132.08 sec.
   GDM::BFGS:   rebuilding Hinv to be positive definite
   12    1124.6490386832      1.09E+01 Descent step
TIMEINFO->: J/JK contribution 131.85 sec.
   13    1116.8631952024      1.03E+01 Line search: understep
TIMEINFO->: J/JK contribution 132.43 sec.
   14    1046.4027637999      1.44E+01 Line search: understep
TIMEINFO->: J/JK contribution 132.10 sec.
   GDM::BFGS:   rebuilding Hinv to be positive definite
   15     601.3802518394      1.74E+01 Descent step
TIMEINFO->: J/JK contribution 132.09 sec.
   GDM::BFGS:   rebuilding Hinv to be positive definite
   16     591.6271406782      1.43E+01 Descent step
TIMEINFO->: J/JK contribution 131.68 sec.
   17     583.6278416975      1.62E+01 Line search: understep
TIMEINFO->: J/JK contribution 131.62 sec.
   GDM::BFGS:   rebuilding Hinv to be positive definite
   18     515.5691583595      2.05E+01 Descent step
TIMEINFO->: J/JK contribution 131.86 sec.
   GDM::BFGS:   rebuilding Hinv to be positive definite
   19     506.1195718142      1.02E+01 Descent step
TIMEINFO->: J/JK contribution 131.79 sec.
   20     499.3085938117      1.25E+01 Line search: understep
TIMEINFO->: J/JK contribution 132.12 sec.
   GDM::BFGS:   rebuilding Hinv to be positive definite
   21     440.8036058447      2.35E+01 Descent step
TIMEINFO->: J/JK contribution 132.39 sec.
   GDM::BFGS:   rebuilding Hinv to be positive definite
   22     431.4678136038      9.56E+00 Descent step
TIMEINFO->: J/JK contribution 131.66 sec.
   23     425.8288909269      1.10E+01 Line search: understep
TIMEINFO->: J/JK contribution 132.41 sec.
   GDM::BFGS:   rebuilding Hinv to be positive definite
   24     378.5943705034      5.98E+00 Descent step
TIMEINFO->: J/JK contribution 131.79 sec.
   25     374.6000569826      1.14E+01 Line search: understep
TIMEINFO->: J/JK contribution 131.82 sec.
   GDM::BFGS:   rebuilding Hinv to be positive definite
   26     341.3497800573      4.57E+00 Descent step
TIMEINFO->: J/JK contribution 132.04 sec.
   27     337.8106566904      1.46E+01 Line search: understep
TIMEINFO->: J/JK contribution 131.93 sec.
   GDM::BFGS:   rebuilding Hinv to be positive definite
   28     306.0623807734      6.99E+00 Descent step
TIMEINFO->: J/JK contribution 131.81 sec.
   29     302.0315106415      1.68E+01 Line search: understep
TIMEINFO->: J/JK contribution 132.36 sec.
   GDM::BFGS:   rebuilding Hinv to be positive definite
   30     262.9061251179      1.19E+01 Descent step
TIMEINFO->: J/JK contribution 132.48 sec.
   GDM::BFGS:   rebuilding Hinv to be positive definite
   31     255.7667156654      1.24E+01 Descent step
TIMEINFO->: J/JK contribution 131.85 sec.
   32     248.9420086752      1.73E+01 Line search: understep
TIMEINFO->: J/JK contribution 131.88 sec.
   GDM::BFGS:   rebuilding Hinv to be positive definite
   33     186.8976294633      1.64E+01 Descent step
TIMEINFO->: J/JK contribution 131.92 sec.
   34     177.8784527414      1.67E+01 Line search: understep
TIMEINFO->: J/JK contribution 131.94 sec.
   GDM::BFGS:   rebuilding Hinv to be positive definite
   35     110.4503063135      7.48E+00 Descent step
TIMEINFO->: J/JK contribution 132.39 sec.
   GDM::BFGS:   rebuilding Hinv to be positive definite
   36     106.6344369903      4.88E+00 Descent step
TIMEINFO->: J/JK contribution 132.90 sec.
   37     103.7779230408      1.38E+01 Line search: understep
TIMEINFO->: J/JK contribution 132.04 sec.
   GDM::BFGS:   rebuilding Hinv to be positive definite
   38      82.0227048374      2.61E+00 Descent step
TIMEINFO->: J/JK contribution 131.75 sec.
   GDM::BFGS:   rebuilding Hinv to be positive definite
   39      79.8128060055      3.24E+00 Descent step
TIMEINFO->: J/JK contribution 131.75 sec.
   GDM::BFGS:   rebuilding Hinv to be positive definite
   40      77.3888863808      2.34E+00 Descent step
TIMEINFO->: J/JK contribution 131.70 sec.
   41      75.1402556852      1.39E+01 Line search: understep
TIMEINFO->: J/JK contribution 132.33 sec.
   GDM::BFGS:   rebuilding Hinv to be positive definite
   42      54.7638233276      7.17E+00 Descent step
TIMEINFO->: J/JK contribution 132.38 sec.
   43      51.1763511050      1.46E+01 Line search: understep
TIMEINFO->: J/JK contribution 131.99 sec.
   GDM::BFGS:   rebuilding Hinv to be positive definite
   44      19.1596042163      5.67E+00 Descent step
TIMEINFO->: J/JK contribution 132.17 sec.
   GDM::BFGS:   rebuilding Hinv to be positive definite
   45      16.0759577882      5.11E+00 Descent step
TIMEINFO->: J/JK contribution 132.05 sec.
   GDM::BFGS:   rebuilding Hinv to be positive definite
   46      13.3143416697      4.63E+00 Descent step
TIMEINFO->: J/JK contribution 132.10 sec.
   47      10.8067336269      1.06E+01 Line search: understep
TIMEINFO->: J/JK contribution 132.13 sec.
   GDM::BFGS:   rebuilding Hinv to be positive definite
   48      -5.7848074529      4.58E+00 Descent step
TIMEINFO->: J/JK contribution 131.72 sec.
   49      -8.0769324483      1.39E+01 Line search: understep
TIMEINFO->: J/JK contribution 132.05 sec.
   GDM::BFGS:   rebuilding Hinv to be positive definite
   50     -21.8258066809      1.52E+00 Descent step
TIMEINFO->: J/JK contribution 132.11 sec.
   GDM::BFGS:   rebuilding Hinv to be positive definite
   51     -22.5919841088      2.27E+00 Descent step
TIMEINFO->: J/JK contribution 131.56 sec.
   GDM::BFGS:   rebuilding Hinv to be positive definite
   52     -23.5613521684      2.14E+00 Descent step
TIMEINFO->: J/JK contribution 131.93 sec.
   GDM::BFGS:   rebuilding Hinv to be positive definite
   53     -24.5129038372      1.33E+00 Descent step
TIMEINFO->: J/JK contribution 131.86 sec.
   GDM::BFGS:   rebuilding Hinv to be positive definite
   54     -25.4022594277      1.59E+00 Descent step
TIMEINFO->: J/JK contribution 131.97 sec.
   GDM::BFGS:   rebuilding Hinv to be positive definite
   55     -26.3565339115      2.15E+00 Descent step
TIMEINFO->: J/JK contribution 131.79 sec.
   GDM::BFGS:   rebuilding Hinv to be positive definite
   56     -27.4615400836      2.76E+00 Descent step
TIMEINFO->: J/JK contribution 131.63 sec.
   GDM::BFGS:   rebuilding Hinv to be positive definite
   57     -28.8264939526      2.40E+00 Descent step
TIMEINFO->: J/JK contribution 131.53 sec.
   GDM::BFGS:   rebuilding Hinv to be positive definite
   58     -30.0613748645      2.06E+00 Descent step
TIMEINFO->: J/JK contribution 132.02 sec.
   GDM::BFGS:   rebuilding Hinv to be positive definite
   59     -31.1335313368      1.62E+00 Descent step
TIMEINFO->: J/JK contribution 131.58 sec.
   GDM::BFGS:   rebuilding Hinv to be positive definite
   60     -31.9617498438      2.31E+00 Descent step
TIMEINFO->: J/JK contribution 131.66 sec.
   61     -32.8364366123      1.51E+00 Descent step
TIMEINFO->: J/JK contribution 131.33 sec.
   62     -33.4567884154      9.75E-01 Descent step
TIMEINFO->: J/JK contribution 131.96 sec.
   63     -33.9697121363      4.40E+01 Line search: understep
TIMEINFO->: J/JK contribution 132.07 sec.
   64     -36.2256450973      1.66E+00 Descent step
TIMEINFO->: J/JK contribution 132.22 sec.
   65     -37.2836178892      1.38E+00 Descent step
TIMEINFO->: J/JK contribution 131.84 sec.
   66     -38.1071249786      1.02E+00 Descent step
TIMEINFO->: J/JK contribution 131.89 sec.
   67     -38.7420752927      7.16E-01 Descent step
TIMEINFO->: J/JK contribution 131.34 sec.
   68     -39.1881768147      5.28E-01 Descent step
TIMEINFO->: J/JK contribution 131.50 sec.
   69     -39.4778304990      2.90E-01 Descent step
TIMEINFO->: J/JK contribution 131.51 sec.
   70     -39.6207427554      1.14E-01 Dog-leg BFGS step
TIMEINFO->: J/JK contribution 131.64 sec.
   71     -39.6284018514      1.32E-01 Dog-leg BFGS step
TIMEINFO->: J/JK contribution 132.11 sec.
   72     -39.6415859747      7.78E-02 Dog-leg BFGS step
TIMEINFO->: J/JK contribution 132.31 sec.
   73     -39.6214690379      1.17E+00 Line search: overstep
TIMEINFO->: J/JK contribution 132.11 sec.
   74     -39.6474927681      5.16E-02 Descent step
TIMEINFO->: J/JK contribution 130.75 sec.
   75     -39.6510274672      3.35E-02 Normal BFGS step
TIMEINFO->: J/JK contribution 130.66 sec.
   76     -39.6519649958      1.83E-02 Normal BFGS step
TIMEINFO->: J/JK contribution 130.29 sec.
   77     -39.6520433851      1.13E-02 Normal BFGS step
TIMEINFO->: J/JK contribution 130.14 sec.
   78     -39.6523286888      9.42E-03 Normal BFGS step
TIMEINFO->: J/JK contribution 129.66 sec.
   79     -39.6523695153      3.57E-03 Normal BFGS step
TIMEINFO->: J/JK contribution 128.51 sec.
   80     -39.6523753378      9.07E-04 Normal BFGS step
TIMEINFO->: J/JK contribution 127.54 sec.
   81     -39.6523761241      2.81E-04 Normal BFGS step
TIMEINFO->: J/JK contribution 127.44 sec.
   82     -39.6523763774      7.78E-04 Normal BFGS step
TIMEINFO->: J/JK contribution 130.61 sec.
   83     -39.6524088762      3.72E-02 Line search: understep
TIMEINFO->: J/JK contribution 131.39 sec.
   GDM::BFGS:   rebuilding Hinv to be positive definite
   84     -39.6550387328      1.80E-01 Normal BFGS step
TIMEINFO->: J/JK contribution 131.45 sec.
   85     -39.6778573129      3.52E-01 Descent step
TIMEINFO->: J/JK contribution 130.93 sec.
   GDM::BFGS:   rebuilding Hinv to be positive definite
   86     -39.9087356915      5.76E-01 Descent step
TIMEINFO->: J/JK contribution 130.78 sec.
   87     -40.0449632009      1.36E-01 Dog-leg BFGS step
TIMEINFO->: J/JK contribution 131.95 sec.
   88     -40.0918840112      3.73E-01 Descent step
TIMEINFO->: J/JK contribution 131.86 sec.
   89     -40.2809805945      4.36E-01 Line search: understep
TIMEINFO->: J/JK contribution 132.57 sec.
   GDM::BFGS:   rebuilding Hinv to be positive definite
   90     -45.1751060799      1.06E+01 Descent step
TIMEINFO->: J/JK contribution 132.54 sec.
   GDM::BFGS:   rebuilding Hinv to be positive definite
   91     -48.6808344104      3.61E+00 Descent step
TIMEINFO->: J/JK contribution 132.60 sec.
   92     -49.9442514991      2.51E+01 Line search: understep
TIMEINFO->: J/JK contribution 132.10 sec.
   GDM::BFGS:   rebuilding Hinv to be positive definite
   93     -53.2148124990      1.09E+00 Descent step
TIMEINFO->: J/JK contribution 131.85 sec.
   GDM::BFGS:   rebuilding Hinv to be positive definite
   94     -53.6488983008      8.34E-01 Descent step
TIMEINFO->: J/JK contribution 131.65 sec.
   GDM::BFGS:   rebuilding Hinv to be positive definite
   95     -53.9481112799      5.57E-01 Descent step
TIMEINFO->: J/JK contribution 132.05 sec.
   GDM::BFGS:   rebuilding Hinv to be positive definite
   96     -54.1351954991      2.90E-01 Descent step
TIMEINFO->: J/JK contribution 131.63 sec.
   GDM::BFGS:   rebuilding Hinv to be positive definite
   97     -54.2118862990      4.43E-02 Dog-leg BFGS step
TIMEINFO->: J/JK contribution 131.49 sec.
   98     -54.1689921137      3.80E+00 Line search: overstep
TIMEINFO->: J/JK contribution 131.50 sec.
   GDM::BFGS:   rebuilding Hinv to be positive definite
   99     -54.2123249509      5.18E-02 Dog-leg BFGS step
TIMEINFO->: J/JK contribution 131.43 sec.
   GDM::BFGS:   rebuilding Hinv to be positive definite
  100     -54.2186205372      1.32E-01 Descent step
TIMEINFO->: J/JK contribution 131.48 sec.
   GDM::BFGS:   rebuilding Hinv to be positive definite
  101     -54.2427943987      3.39E-01 Descent step
TIMEINFO->: J/JK contribution 131.33 sec.
   GDM::BFGS:   rebuilding Hinv to be positive definite
  102     -54.4413431132      6.55E-01 Descent step
TIMEINFO->: J/JK contribution 131.59 sec.
  103     -54.5900882085      5.97E-02 Dog-leg BFGS step
TIMEINFO->: J/JK contribution 131.42 sec.
  104     -54.5540848001      3.93E+00 Line search: overstep
TIMEINFO->: J/JK contribution 132.05 sec.
  105     -54.5929723677      6.13E-02 Descent step
TIMEINFO->: J/JK contribution 129.52 sec.
  106     -54.6029286733      4.88E-02 Normal BFGS step
TIMEINFO->: J/JK contribution 131.39 sec.
  107     -54.5964249115      3.43E+00 Line search: overstep
TIMEINFO->: J/JK contribution 130.64 sec.
  108     -54.6037930171      2.84E-02 Dog-leg BFGS step
TIMEINFO->: J/JK contribution 129.83 sec.
  109     -54.6038928834      2.29E-02 Normal BFGS step
TIMEINFO->: J/JK contribution 130.14 sec.
  110     -54.6032714188      1.73E+00 Line search: overstep
TIMEINFO->: J/JK contribution 130.26 sec.
  111     -54.6046084471      2.03E-02 Dog-leg BFGS step
TIMEINFO->: J/JK contribution 131.12 sec.
  112     -54.6020400758      2.41E+00 Line search: overstep
TIMEINFO->: J/JK contribution 130.62 sec.
  113     -54.6051614229      7.89E-03 Normal BFGS step
TIMEINFO->: J/JK contribution 127.92 sec.
  114     -54.6051217972      3.86E-01 Line search: overstep
TIMEINFO->: J/JK contribution 127.92 sec.
  115     -54.6052333706      2.78E-03 Normal BFGS step
TIMEINFO->: J/JK contribution 125.00 sec.
  116     -54.6052391605      2.02E-03 Normal BFGS step
TIMEINFO->: J/JK contribution 122.48 sec.
  117     -54.6052519638      5.19E-04 Normal BFGS step
TIMEINFO->: J/JK contribution 112.42 sec.
  118     -54.6052522686      4.13E-04 Normal BFGS step
TIMEINFO->: J/JK contribution 110.26 sec.
  119     -54.6052525729      5.51E-05 Normal BFGS step
TIMEINFO->: J/JK contribution 89.50 sec.
  120     -54.6052525764      3.19E-05 Normal BFGS step
TIMEINFO->: J/JK contribution 48.37 sec.
  121     -54.6052525777      2.04E-06 Normal BFGS step
TIMEINFO->: J/JK contribution 48.45 sec.
  122     -54.6052525777      1.21E-06 Normal BFGS step
TIMEINFO->: J/JK contribution 43.02 sec.
  123     -54.6052525777      1.96E-07 Normal BFGS step
TIMEINFO->: J/JK contribution 39.11 sec.
  124     -54.6052525777      7.07E-08 Normal BFGS step
TIMEINFO->: J/JK contribution 36.04 sec.
  125     -54.6052525777      1.91E-08 Normal BFGS step
TIMEINFO->: J/JK contribution 34.13 sec.
   GDM::WARNING energy changes are now smaller than effective accuracy.
   GDM::        calculation will continue, but THRESH should be increased
   GDM::        or SCF_CONVERGENCE decreased.
   GDM::        effective_thresh =   6.090085328397388E-010
  126     -54.6052525777      7.31E-09 Convergence criterion met
 ---------------------------------------
 B3LYP orbitals are now ready for the XYG3 calculation.
 XYG3 energy = Exch (0.8033 HF  - 0.0140 Slater + 0.2107 Becke88) + 
               Corr (0.6789 LYP + 0.3211 MP2)
 SCF time:  CPU 16301.99 s  wall 2039.81 s
 SCF   energy in the final basis set = -54.53758039
 Total energy in the final basis set = -54.53758039

 Q-Chem fatal error occurred in module libmdc/qalloc.C, line 49:

 Illegal memory length in mega_alloc


 Please submit a crash report at q-chem.com/reporter 
 
 
 
User input: 2 of 7 
 
Q-Chem Developer Version!
                  Welcome to Q-Chem
     A Quantum Leap Into The Future Of Chemistry


 Q-Chem 5.1, Q-Chem, Inc., Pleasanton, CA (2018)

 Yihan Shao,  Zhengting Gan,  E. Epifanovsky,  A. T. B. Gilbert,  M. Wormit,  
 J. Kussmann,  A. W. Lange,  A. Behn,  Jia Deng,  Xintian Feng,  D. Ghosh,  
 M. Goldey,  P. R. Horn,  L. D. Jacobson,  I. Kaliman,  T. Kus,  A. Landau,  
 Jie Liu,  E. I. Proynov,  R. M. Richard,  R. P. Steele,  E. J. Sundstrom,  
 H. L. Woodcock III,  P. M. Zimmerman,  D. Zuev,  B. Albrecht,  E. Alguire,  
 S. A. Baeppler,  D. Barton,  Z. Benda,  Y. A. Bernard,  E. J. Berquist,  
 K. B. Bravaya,  H. Burton,  D. Casanova,  Chun-Min Chang,  Yunqing Chen,  
 A. Chien,  K. D. Closser,  M. P. Coons,  S. Coriani,  S. Dasgupta,  
 A. L. Dempwolff,  M. Diedenhofen,  Hainam Do,  R. G. Edgar,  Po-Tung Fang,  
 S. Faraji,  S. Fatehi,  Qingguo Feng,  K. D. Fenk,  J. Fosso-Tande,  
 Qinghui Ge,  A. Ghysels,  G. Gidofalvi,  J. Gomes,  J. Gonthier,  A. Gunina,  
 D. Hait,  M. W. D. Hanson-Heine,  P. H. P. Harbach,  A. W. Hauser,  
 J. E. Herr,  E. G. Hohenstein,  Z. C. Holden,  Kerwin Hui,  B. C. Huynh,  
 T.-C. Jagau,  Hyunjun Ji,  B. Kaduk,  K. Khistyaev,  Jaehoon Kim,  
 P. Klunzinger,  K. Koh,  D. Kosenkov,  L. Koulias,  T. Kowalczyk,  
 C. M. Krauter,  A. Kunitsa,  Ka Un Lao,  A. Laurent,  K. V. Lawler,  
 Joonho Lee,  D. Lefrancois,  S. Lehtola,  D. S. Levine,  Yi-Pei Li,  
 You-Sheng Lin,  Fenglai Liu,  E. Livshits,  A. Luenser,  P. Manohar,  
 E. Mansoor,  S. F. Manzer,  Shan-Ping Mao,  Yuezhi Mao,  N. Mardirossian,  
 A. V. Marenich,  T. Markovich,  L. A. Martinez-Martinez,  S. A. Maurer,  
 N. J. Mayhall,  S. C. McKenzie,  J.-M. Mewes,  A. F. Morrison,  
 J. W. Mullinax,  K. Nanda,  T. S. Nguyen-Beck,  R. Olivares-Amaya,  
 J. A. Parkhill,  T. M. Perrine,  F. Plasser,  P. Pokhilko,  S. Prager,  
 A. Prociuk,  E. Ramos,  D. R. Rehn,  F. Rob,  M. Schneider,  N. Sergueev,  
 S. M. Sharada,  S. Sharma,  D. W. Small,  T. Stauch,  T. Stein,  
 Yu-Chuan Su,  A. J. W. Thom,  A. Tkatchenko,  T. Tsuchimochi,  N. M. Tubman,  
 L. Vogt,  M. L. Vidal,  O. Vydrov,  M. A. Watson,  J. Wenzel,  
 M. de Wergifosse,  T. A. Wesolowski,  A. White,  J. Witte,  A. Yamada,  
 Jun Yang,  K. Yao,  S. Yeganeh,  S. R. Yost,  Zhi-Qiang You,  A. Zech,  
 Igor Ying Zhang,  Xing Zhang,  Yan Zhao,  Ying Zhu,  B. R. Brooks,  
 G. K. L. Chan,  C. J. Cramer,  M. S. Gordon,  W. J. Hehre,  A. Klamt,  
 M. W. Schmidt,  C. D. Sherrill,  D. G. Truhlar,  A. Aspuru-Guzik,  R. Baer,  
 A. T. Bell,  N. A. Besley,  Jeng-Da Chai,  A. E. DePrince, III,  
 R. A. DiStasio Jr.,  A. Dreuw,  B. D. Dunietz,  T. R. Furlani,  
 Chao-Ping Hsu,  Yousung Jung,  Jing Kong,  D. S. Lambrecht,  WanZhen Liang,  
 C. Ochsenfeld,  V. A. Rassolov,  L. V. Slipchenko,  J. E. Subotnik,  
 T. Van Voorhis,  J. M. Herbert,  A. I. Krylov,  P. M. W. Gill,  M. Head-Gordon

 Contributors to earlier versions of Q-Chem not listed above: 
 R. D. Adamson,  B. Austin,  J. Baker,  G. J. O. Beran,  K. Brandhorst,  
 S. T. Brown,  E. F. C. Byrd,  A. K. Chakraborty,  C.-L. Cheng,  
 Siu Hung Chien,  D. M. Chipman,  D. L. Crittenden,  H. Dachsel,  
 R. J. Doerksen,  A. D. Dutoi,  L. Fusti-Molnar,  W. A. Goddard III,  
 A. Golubeva-Zadorozhnaya,  S. R. Gwaltney,  G. Hawkins,  A. Heyden,  
 S. Hirata,  G. Kedziora,  F. J. Keil,  C. Kelley,  Jihan Kim,  R. A. King,  
 R. Z. Khaliullin,  P. P. Korambath,  W. Kurlancheek,  A. M. Lee,  M. S. Lee,  
 S. V. Levchenko,  Ching Yeh Lin,  D. Liotard,  R. C. Lochan,  I. Lotan,  
 P. E. Maslen,  N. Nair,  D. P. O'Neill,  D. Neuhauser,  E. Neuscamman,  
 C. M. Oana,  R. Olson,  B. Peters,  R. Peverati,  P. A. Pieniazek,  
 Y. M. Rhee,  J. Ritchie,  M. A. Rohrdanz,  E. Rosta,  N. J. Russ,  
 H. F. Schaefer III,  N. E. Schultz,  N. Shenvi,  A. C. Simmonett,  A. Sodt,  
 D. Stuck,  K. S. Thanthiriwatte,  V. Vanovschi,  Tao Wang,  A. Warshel,  
 C. F. Williams,  Q. Wu,  X. Xu,  W. Zhang

 Please cite Q-Chem as follows:
 Y. Shao et al., Mol. Phys. 113, 184-215 (2015)
 DOI: 10.1080/00268976.2014.952696

 Q-Chem 5.1.1 for Intel X86 EM64T Linux

 Parts of Q-Chem use Armadillo 8.300.2 (Tropical Shenanigans).
 http://arma.sourceforge.net/

 Q-Chem begins on Fri Oct 23 03:56:58 2020  

Host: n0090.mhg0
0

     Scratch files written to /local/scratch/users/yhljason/N_XYG3_aug-cc-pcV5Z.inp20201023032254//
The previous job contains 0 fragments, simply inherited here
Input Ideriv = 1
Curr. Ideriv = -1
Max.  Ideriv = 1

Checking the input file for inconsistencies... 	...done.

--------------------------------------------------------------
User input:
--------------------------------------------------------------
$molecule
read
$end

$rem

jobtype sp
exchange XYG3
xc_grid 000099000590
basis aug-cc-pcV5Z

max_scf_cycles 200
thresh 14
scf_convergence 8
mem_total 128000
cc_memory 96000
cc_backend xm
mem_static 1500
symmetry false
sym_ignore true
scf_guess read
unrestricted false
scf_algorithm gdm
n_frozen_core 1000
$end

$multipole_field
XX 0.0001
$end


--------------------------------------------------------------
 ----------------------------------------------------------------
             Standard Nuclear Orientation (Angstroms)
    I     Atom           X                Y                Z
 ----------------------------------------------------------------
    1      N       0.0000000000     0.0000000000     0.0000000000
 ----------------------------------------------------------------
 Nuclear Repulsion Energy =     0.0000000000 hartrees
 There are        5 alpha and        2 beta electrons
 Requested basis set is aug-cc-pCV5Z
 There are 41 shells and 181 basis functions

 Total QAlloc Memory Limit 128000 MB
 Mega-Array Size      1467 MB
 MEM_STATIC part      1500 MB
 Applying Cartesian multipole field
    Component          Value
    ---------          -----
     (2,0,0)        1.00000E-04
 A cutoff of  1.0D-14 yielded    861 shell pairs
 There are     16961 function pairs (     32886 Cartesian)
 
 -------------------------------------------------------
 OpenMP Integral Computing Module                       
 Release: version 1.0, May 2013, Q-Chem Inc. Pittsburgh 
 -------------------------------------------------------
 Integral Job Info:
 Integral job number is                      11
 Integral operator is                         1
 short-range coefficients                     0
 long-range coefficients              100000000
 Omega coefficients                           0
 if combine SR and LR in K                    0
 Integral screening is                        0
 Integral computing path is                   2
 max size of driver memory is           6400000
 size of driver memory is               5498286
 size of scratch memory is             29551430
 max col of scratch BK array             194481
 max len of scratch array in speh3         5572
 max len of scratch index in speh4           72
 max int batch size is                      520
 min int batch size is                       52
 fixed nKL is                                30
 max L of basis functions is                  5
 order of int derivative is                   0
 number of shells is                         41
 number of basis is                         251
 number of cartesian basis is               251
 number of contracted shell pairs           861
 number of primitive shell pairs           2049
 maxK2 (contraction) of shell pair          100
 max number of K2 of shell pair               1
 max number of CS2 of shell pair             81
 max number of PS2 of shell pair            300
 mem total for path MDJ                  815924
 -------------------------------------------------------
 Smallest overlap matrix eigenvalue = 1.87E-05
 Guess MOs from SCF MO coefficient file
 Reading MOs from coefficient file
 Reading MOs from coefficient file
 A restricted hybrid HF-DFT SCF calculation will be
 performed using Geometric Direct Minimization
 Exchange:     0.2000 Hartree-Fock + 0.0800 Slater + 0.7200 B88
 Correlation:  0.1900 VWN1RPA + 0.8100 LYP
 Using Euler-Maclaurin-Lebedev (99,590) quadrature formula
 SCF converges when RMS gradient is below 1.0E-08
Using Q-Chem read-in guess as SCF_GUESS READ specified.

 using 8 threads for integral computing
 -------------------------------------------------------
 OpenMP Integral computing Module                
 Release: version 2.0, May 2017, Q-Chem Inc. Pleasanton 
 -------------------------------------------------------
 LTot/LBra/LKet=          15           6           9

 Q-Chem warning:

 in GenH1, ket side, handled with new code

TIMEINFO->: J/JK contribution 26.49 sec.
 -------------------------------------------------------
 OpenMP BLAS3 based DFT computing Module                
 Release: version 1.0, May 2013, Q-Chem Inc. Pittsburgh 
 -------------------------------------------------------
 ---------------------------------------
  Cycle       Energy        RMS Gradient
 ---------------------------------------
    1     -54.6056669848      4.39E-04 Normal BFGS step
TIMEINFO->: J/JK contribution 65.34 sec.
    2     -54.6056670149      4.31E-04 Normal BFGS step
TIMEINFO->: J/JK contribution 54.05 sec.
    3     -54.6056671144      2.74E-05 Normal BFGS step
TIMEINFO->: J/JK contribution 58.50 sec.
    4     -54.6056671162      3.72E-05 Normal BFGS step
TIMEINFO->: J/JK contribution 44.89 sec.
    5     -54.6056671169      5.04E-06 Normal BFGS step
TIMEINFO->: J/JK contribution 43.76 sec.
    6     -54.6056671169      1.04E-06 Normal BFGS step
TIMEINFO->: J/JK contribution 37.85 sec.
    7     -54.6056671169      1.06E-07 Normal BFGS step
TIMEINFO->: J/JK contribution 29.27 sec.
   GDM::WARNING energy changes are now smaller than effective accuracy.
   GDM::        calculation will continue, but THRESH should be increased
   GDM::        or SCF_CONVERGENCE decreased.
   GDM::        effective_thresh =   5.000000000000000E-011
    8     -54.6056671169      6.48E-08 Normal BFGS step
TIMEINFO->: J/JK contribution 26.41 sec.
    9     -54.6056671169      2.15E-09 Convergence criterion met
 ---------------------------------------
 B3LYP orbitals are now ready for the XYG3 calculation.
 XYG3 energy = Exch (0.8033 HF  - 0.0140 Slater + 0.2107 Becke88) + 
               Corr (0.6789 LYP + 0.3211 MP2)
 SCF time:  CPU 423.13 s  wall 52.99 s
 SCF   energy in the final basis set = -54.53798235
 Total energy in the final basis set = -54.53798235

 Q-Chem fatal error occurred in module libmdc/qalloc.C, line 49:

 Illegal memory length in mega_alloc


 Please submit a crash report at q-chem.com/reporter 
 
 
 
User input: 3 of 7 
 
Q-Chem Developer Version!
                  Welcome to Q-Chem
     A Quantum Leap Into The Future Of Chemistry


 Q-Chem 5.1, Q-Chem, Inc., Pleasanton, CA (2018)

 Yihan Shao,  Zhengting Gan,  E. Epifanovsky,  A. T. B. Gilbert,  M. Wormit,  
 J. Kussmann,  A. W. Lange,  A. Behn,  Jia Deng,  Xintian Feng,  D. Ghosh,  
 M. Goldey,  P. R. Horn,  L. D. Jacobson,  I. Kaliman,  T. Kus,  A. Landau,  
 Jie Liu,  E. I. Proynov,  R. M. Richard,  R. P. Steele,  E. J. Sundstrom,  
 H. L. Woodcock III,  P. M. Zimmerman,  D. Zuev,  B. Albrecht,  E. Alguire,  
 S. A. Baeppler,  D. Barton,  Z. Benda,  Y. A. Bernard,  E. J. Berquist,  
 K. B. Bravaya,  H. Burton,  D. Casanova,  Chun-Min Chang,  Yunqing Chen,  
 A. Chien,  K. D. Closser,  M. P. Coons,  S. Coriani,  S. Dasgupta,  
 A. L. Dempwolff,  M. Diedenhofen,  Hainam Do,  R. G. Edgar,  Po-Tung Fang,  
 S. Faraji,  S. Fatehi,  Qingguo Feng,  K. D. Fenk,  J. Fosso-Tande,  
 Qinghui Ge,  A. Ghysels,  G. Gidofalvi,  J. Gomes,  J. Gonthier,  A. Gunina,  
 D. Hait,  M. W. D. Hanson-Heine,  P. H. P. Harbach,  A. W. Hauser,  
 J. E. Herr,  E. G. Hohenstein,  Z. C. Holden,  Kerwin Hui,  B. C. Huynh,  
 T.-C. Jagau,  Hyunjun Ji,  B. Kaduk,  K. Khistyaev,  Jaehoon Kim,  
 P. Klunzinger,  K. Koh,  D. Kosenkov,  L. Koulias,  T. Kowalczyk,  
 C. M. Krauter,  A. Kunitsa,  Ka Un Lao,  A. Laurent,  K. V. Lawler,  
 Joonho Lee,  D. Lefrancois,  S. Lehtola,  D. S. Levine,  Yi-Pei Li,  
 You-Sheng Lin,  Fenglai Liu,  E. Livshits,  A. Luenser,  P. Manohar,  
 E. Mansoor,  S. F. Manzer,  Shan-Ping Mao,  Yuezhi Mao,  N. Mardirossian,  
 A. V. Marenich,  T. Markovich,  L. A. Martinez-Martinez,  S. A. Maurer,  
 N. J. Mayhall,  S. C. McKenzie,  J.-M. Mewes,  A. F. Morrison,  
 J. W. Mullinax,  K. Nanda,  T. S. Nguyen-Beck,  R. Olivares-Amaya,  
 J. A. Parkhill,  T. M. Perrine,  F. Plasser,  P. Pokhilko,  S. Prager,  
 A. Prociuk,  E. Ramos,  D. R. Rehn,  F. Rob,  M. Schneider,  N. Sergueev,  
 S. M. Sharada,  S. Sharma,  D. W. Small,  T. Stauch,  T. Stein,  
 Yu-Chuan Su,  A. J. W. Thom,  A. Tkatchenko,  T. Tsuchimochi,  N. M. Tubman,  
 L. Vogt,  M. L. Vidal,  O. Vydrov,  M. A. Watson,  J. Wenzel,  
 M. de Wergifosse,  T. A. Wesolowski,  A. White,  J. Witte,  A. Yamada,  
 Jun Yang,  K. Yao,  S. Yeganeh,  S. R. Yost,  Zhi-Qiang You,  A. Zech,  
 Igor Ying Zhang,  Xing Zhang,  Yan Zhao,  Ying Zhu,  B. R. Brooks,  
 G. K. L. Chan,  C. J. Cramer,  M. S. Gordon,  W. J. Hehre,  A. Klamt,  
 M. W. Schmidt,  C. D. Sherrill,  D. G. Truhlar,  A. Aspuru-Guzik,  R. Baer,  
 A. T. Bell,  N. A. Besley,  Jeng-Da Chai,  A. E. DePrince, III,  
 R. A. DiStasio Jr.,  A. Dreuw,  B. D. Dunietz,  T. R. Furlani,  
 Chao-Ping Hsu,  Yousung Jung,  Jing Kong,  D. S. Lambrecht,  WanZhen Liang,  
 C. Ochsenfeld,  V. A. Rassolov,  L. V. Slipchenko,  J. E. Subotnik,  
 T. Van Voorhis,  J. M. Herbert,  A. I. Krylov,  P. M. W. Gill,  M. Head-Gordon

 Contributors to earlier versions of Q-Chem not listed above: 
 R. D. Adamson,  B. Austin,  J. Baker,  G. J. O. Beran,  K. Brandhorst,  
 S. T. Brown,  E. F. C. Byrd,  A. K. Chakraborty,  C.-L. Cheng,  
 Siu Hung Chien,  D. M. Chipman,  D. L. Crittenden,  H. Dachsel,  
 R. J. Doerksen,  A. D. Dutoi,  L. Fusti-Molnar,  W. A. Goddard III,  
 A. Golubeva-Zadorozhnaya,  S. R. Gwaltney,  G. Hawkins,  A. Heyden,  
 S. Hirata,  G. Kedziora,  F. J. Keil,  C. Kelley,  Jihan Kim,  R. A. King,  
 R. Z. Khaliullin,  P. P. Korambath,  W. Kurlancheek,  A. M. Lee,  M. S. Lee,  
 S. V. Levchenko,  Ching Yeh Lin,  D. Liotard,  R. C. Lochan,  I. Lotan,  
 P. E. Maslen,  N. Nair,  D. P. O'Neill,  D. Neuhauser,  E. Neuscamman,  
 C. M. Oana,  R. Olson,  B. Peters,  R. Peverati,  P. A. Pieniazek,  
 Y. M. Rhee,  J. Ritchie,  M. A. Rohrdanz,  E. Rosta,  N. J. Russ,  
 H. F. Schaefer III,  N. E. Schultz,  N. Shenvi,  A. C. Simmonett,  A. Sodt,  
 D. Stuck,  K. S. Thanthiriwatte,  V. Vanovschi,  Tao Wang,  A. Warshel,  
 C. F. Williams,  Q. Wu,  X. Xu,  W. Zhang

 Please cite Q-Chem as follows:
 Y. Shao et al., Mol. Phys. 113, 184-215 (2015)
 DOI: 10.1080/00268976.2014.952696

 Q-Chem 5.1.1 for Intel X86 EM64T Linux

 Parts of Q-Chem use Armadillo 8.300.2 (Tropical Shenanigans).
 http://arma.sourceforge.net/

 Q-Chem begins on Fri Oct 23 03:57:54 2020  

Host: n0090.mhg0
0

     Scratch files written to /local/scratch/users/yhljason/N_XYG3_aug-cc-pcV5Z.inp20201023032254//
The previous job contains 0 fragments, simply inherited here
Input Ideriv = 1
Curr. Ideriv = -1
Max.  Ideriv = 1

Checking the input file for inconsistencies... 	...done.

--------------------------------------------------------------
User input:
--------------------------------------------------------------
$molecule
read
$end

$rem

jobtype sp
exchange XYG3
xc_grid 000099000590
basis aug-cc-pcV5Z

max_scf_cycles 200
thresh 14
scf_convergence 8
mem_total 128000
cc_memory 96000
cc_backend xm
mem_static 1500
symmetry false
sym_ignore true
scf_guess read
unrestricted false
scf_algorithm gdm
n_frozen_core 1000
$end

$multipole_field
XX -0.0001
$end


--------------------------------------------------------------
 ----------------------------------------------------------------
             Standard Nuclear Orientation (Angstroms)
    I     Atom           X                Y                Z
 ----------------------------------------------------------------
    1      N       0.0000000000     0.0000000000     0.0000000000
 ----------------------------------------------------------------
 Nuclear Repulsion Energy =     0.0000000000 hartrees
 There are        5 alpha and        2 beta electrons
 Requested basis set is aug-cc-pCV5Z
 There are 41 shells and 181 basis functions

 Total QAlloc Memory Limit 128000 MB
 Mega-Array Size      1467 MB
 MEM_STATIC part      1500 MB
 Applying Cartesian multipole field
    Component          Value
    ---------          -----
     (2,0,0)       -1.00000E-04
 A cutoff of  1.0D-14 yielded    861 shell pairs
 There are     16961 function pairs (     32886 Cartesian)
 
 -------------------------------------------------------
 OpenMP Integral Computing Module                       
 Release: version 1.0, May 2013, Q-Chem Inc. Pittsburgh 
 -------------------------------------------------------
 Integral Job Info:
 Integral job number is                      11
 Integral operator is                         1
 short-range coefficients                     0
 long-range coefficients              100000000
 Omega coefficients                           0
 if combine SR and LR in K                    0
 Integral screening is                        0
 Integral computing path is                   2
 max size of driver memory is           6400000
 size of driver memory is               5498286
 size of scratch memory is             29551430
 max col of scratch BK array             194481
 max len of scratch array in speh3         5572
 max len of scratch index in speh4           72
 max int batch size is                      520
 min int batch size is                       52
 fixed nKL is                                30
 max L of basis functions is                  5
 order of int derivative is                   0
 number of shells is                         41
 number of basis is                         251
 number of cartesian basis is               251
 number of contracted shell pairs           861
 number of primitive shell pairs           2049
 maxK2 (contraction) of shell pair          100
 max number of K2 of shell pair               1
 max number of CS2 of shell pair             81
 max number of PS2 of shell pair            300
 mem total for path MDJ                  815924
 -------------------------------------------------------
 Smallest overlap matrix eigenvalue = 1.87E-05
 Guess MOs from SCF MO coefficient file
 Reading MOs from coefficient file
 Reading MOs from coefficient file
 A restricted hybrid HF-DFT SCF calculation will be
 performed using Geometric Direct Minimization
 Exchange:     0.2000 Hartree-Fock + 0.0800 Slater + 0.7200 B88
 Correlation:  0.1900 VWN1RPA + 0.8100 LYP
 Using Euler-Maclaurin-Lebedev (99,590) quadrature formula
 SCF converges when RMS gradient is below 1.0E-08
Using Q-Chem read-in guess as SCF_GUESS READ specified.

 using 8 threads for integral computing
 -------------------------------------------------------
 OpenMP Integral computing Module                
 Release: version 2.0, May 2017, Q-Chem Inc. Pleasanton 
 -------------------------------------------------------
 LTot/LBra/LKet=          18           8          10

 Q-Chem warning:

 in GenH1, ket side, handled with new code

 LTot/LBra/LKet=          17           8           9

 Q-Chem warning:

 in GenH1, ket side, handled with new code

TIMEINFO->: J/JK contribution 65.48 sec.
 -------------------------------------------------------
 OpenMP BLAS3 based DFT computing Module                
 Release: version 1.0, May 2013, Q-Chem Inc. Pittsburgh 
 -------------------------------------------------------
 ---------------------------------------
  Cycle       Energy        RMS Gradient
 ---------------------------------------
    1     -54.6048377736      8.78E-04 Normal BFGS step
TIMEINFO->: J/JK contribution 66.27 sec.
    2     -54.6048379032      8.43E-04 Normal BFGS step
TIMEINFO->: J/JK contribution 54.43 sec.
    3     -54.6048382918      6.75E-05 Normal BFGS step
TIMEINFO->: J/JK contribution 60.13 sec.
    4     -54.6048382994      7.53E-05 Normal BFGS step
TIMEINFO->: J/JK contribution 47.96 sec.
    5     -54.6048383022      9.62E-06 Normal BFGS step
TIMEINFO->: J/JK contribution 45.81 sec.
    6     -54.6048383022      1.92E-06 Normal BFGS step
TIMEINFO->: J/JK contribution 39.36 sec.
    7     -54.6048383022      2.11E-07 Normal BFGS step
TIMEINFO->: J/JK contribution 30.38 sec.
    8     -54.6048383022      1.31E-07 Normal BFGS step
TIMEINFO->: J/JK contribution 28.40 sec.
    9     -54.6048383022      4.03E-09 Convergence criterion met
 ---------------------------------------
 B3LYP orbitals are now ready for the XYG3 calculation.
 XYG3 energy = Exch (0.8033 HF  - 0.0140 Slater + 0.2107 Becke88) + 
               Corr (0.6789 LYP + 0.3211 MP2)
 SCF time:  CPU 474.63 s  wall 59.42 s
 SCF   energy in the final basis set = -54.53717862
 Total energy in the final basis set = -54.53717862

 Q-Chem fatal error occurred in module libmdc/qalloc.C, line 49:

 Illegal memory length in mega_alloc


 Please submit a crash report at q-chem.com/reporter 
 
 
 
User input: 4 of 7 
 
Q-Chem Developer Version!
                  Welcome to Q-Chem
     A Quantum Leap Into The Future Of Chemistry


 Q-Chem 5.1, Q-Chem, Inc., Pleasanton, CA (2018)

 Yihan Shao,  Zhengting Gan,  E. Epifanovsky,  A. T. B. Gilbert,  M. Wormit,  
 J. Kussmann,  A. W. Lange,  A. Behn,  Jia Deng,  Xintian Feng,  D. Ghosh,  
 M. Goldey,  P. R. Horn,  L. D. Jacobson,  I. Kaliman,  T. Kus,  A. Landau,  
 Jie Liu,  E. I. Proynov,  R. M. Richard,  R. P. Steele,  E. J. Sundstrom,  
 H. L. Woodcock III,  P. M. Zimmerman,  D. Zuev,  B. Albrecht,  E. Alguire,  
 S. A. Baeppler,  D. Barton,  Z. Benda,  Y. A. Bernard,  E. J. Berquist,  
 K. B. Bravaya,  H. Burton,  D. Casanova,  Chun-Min Chang,  Yunqing Chen,  
 A. Chien,  K. D. Closser,  M. P. Coons,  S. Coriani,  S. Dasgupta,  
 A. L. Dempwolff,  M. Diedenhofen,  Hainam Do,  R. G. Edgar,  Po-Tung Fang,  
 S. Faraji,  S. Fatehi,  Qingguo Feng,  K. D. Fenk,  J. Fosso-Tande,  
 Qinghui Ge,  A. Ghysels,  G. Gidofalvi,  J. Gomes,  J. Gonthier,  A. Gunina,  
 D. Hait,  M. W. D. Hanson-Heine,  P. H. P. Harbach,  A. W. Hauser,  
 J. E. Herr,  E. G. Hohenstein,  Z. C. Holden,  Kerwin Hui,  B. C. Huynh,  
 T.-C. Jagau,  Hyunjun Ji,  B. Kaduk,  K. Khistyaev,  Jaehoon Kim,  
 P. Klunzinger,  K. Koh,  D. Kosenkov,  L. Koulias,  T. Kowalczyk,  
 C. M. Krauter,  A. Kunitsa,  Ka Un Lao,  A. Laurent,  K. V. Lawler,  
 Joonho Lee,  D. Lefrancois,  S. Lehtola,  D. S. Levine,  Yi-Pei Li,  
 You-Sheng Lin,  Fenglai Liu,  E. Livshits,  A. Luenser,  P. Manohar,  
 E. Mansoor,  S. F. Manzer,  Shan-Ping Mao,  Yuezhi Mao,  N. Mardirossian,  
 A. V. Marenich,  T. Markovich,  L. A. Martinez-Martinez,  S. A. Maurer,  
 N. J. Mayhall,  S. C. McKenzie,  J.-M. Mewes,  A. F. Morrison,  
 J. W. Mullinax,  K. Nanda,  T. S. Nguyen-Beck,  R. Olivares-Amaya,  
 J. A. Parkhill,  T. M. Perrine,  F. Plasser,  P. Pokhilko,  S. Prager,  
 A. Prociuk,  E. Ramos,  D. R. Rehn,  F. Rob,  M. Schneider,  N. Sergueev,  
 S. M. Sharada,  S. Sharma,  D. W. Small,  T. Stauch,  T. Stein,  
 Yu-Chuan Su,  A. J. W. Thom,  A. Tkatchenko,  T. Tsuchimochi,  N. M. Tubman,  
 L. Vogt,  M. L. Vidal,  O. Vydrov,  M. A. Watson,  J. Wenzel,  
 M. de Wergifosse,  T. A. Wesolowski,  A. White,  J. Witte,  A. Yamada,  
 Jun Yang,  K. Yao,  S. Yeganeh,  S. R. Yost,  Zhi-Qiang You,  A. Zech,  
 Igor Ying Zhang,  Xing Zhang,  Yan Zhao,  Ying Zhu,  B. R. Brooks,  
 G. K. L. Chan,  C. J. Cramer,  M. S. Gordon,  W. J. Hehre,  A. Klamt,  
 M. W. Schmidt,  C. D. Sherrill,  D. G. Truhlar,  A. Aspuru-Guzik,  R. Baer,  
 A. T. Bell,  N. A. Besley,  Jeng-Da Chai,  A. E. DePrince, III,  
 R. A. DiStasio Jr.,  A. Dreuw,  B. D. Dunietz,  T. R. Furlani,  
 Chao-Ping Hsu,  Yousung Jung,  Jing Kong,  D. S. Lambrecht,  WanZhen Liang,  
 C. Ochsenfeld,  V. A. Rassolov,  L. V. Slipchenko,  J. E. Subotnik,  
 T. Van Voorhis,  J. M. Herbert,  A. I. Krylov,  P. M. W. Gill,  M. Head-Gordon

 Contributors to earlier versions of Q-Chem not listed above: 
 R. D. Adamson,  B. Austin,  J. Baker,  G. J. O. Beran,  K. Brandhorst,  
 S. T. Brown,  E. F. C. Byrd,  A. K. Chakraborty,  C.-L. Cheng,  
 Siu Hung Chien,  D. M. Chipman,  D. L. Crittenden,  H. Dachsel,  
 R. J. Doerksen,  A. D. Dutoi,  L. Fusti-Molnar,  W. A. Goddard III,  
 A. Golubeva-Zadorozhnaya,  S. R. Gwaltney,  G. Hawkins,  A. Heyden,  
 S. Hirata,  G. Kedziora,  F. J. Keil,  C. Kelley,  Jihan Kim,  R. A. King,  
 R. Z. Khaliullin,  P. P. Korambath,  W. Kurlancheek,  A. M. Lee,  M. S. Lee,  
 S. V. Levchenko,  Ching Yeh Lin,  D. Liotard,  R. C. Lochan,  I. Lotan,  
 P. E. Maslen,  N. Nair,  D. P. O'Neill,  D. Neuhauser,  E. Neuscamman,  
 C. M. Oana,  R. Olson,  B. Peters,  R. Peverati,  P. A. Pieniazek,  
 Y. M. Rhee,  J. Ritchie,  M. A. Rohrdanz,  E. Rosta,  N. J. Russ,  
 H. F. Schaefer III,  N. E. Schultz,  N. Shenvi,  A. C. Simmonett,  A. Sodt,  
 D. Stuck,  K. S. Thanthiriwatte,  V. Vanovschi,  Tao Wang,  A. Warshel,  
 C. F. Williams,  Q. Wu,  X. Xu,  W. Zhang

 Please cite Q-Chem as follows:
 Y. Shao et al., Mol. Phys. 113, 184-215 (2015)
 DOI: 10.1080/00268976.2014.952696

 Q-Chem 5.1.1 for Intel X86 EM64T Linux

 Parts of Q-Chem use Armadillo 8.300.2 (Tropical Shenanigans).
 http://arma.sourceforge.net/

 Q-Chem begins on Fri Oct 23 03:58:56 2020  

Host: n0090.mhg0
0

     Scratch files written to /local/scratch/users/yhljason/N_XYG3_aug-cc-pcV5Z.inp20201023032254//
The previous job contains 0 fragments, simply inherited here
Input Ideriv = 1
Curr. Ideriv = -1
Max.  Ideriv = 1

Checking the input file for inconsistencies... 	...done.

--------------------------------------------------------------
User input:
--------------------------------------------------------------
$molecule
read
$end

$rem

jobtype sp
exchange XYG3
xc_grid 000099000590
basis aug-cc-pcV5Z

max_scf_cycles 200
thresh 14
scf_convergence 8
mem_total 128000
cc_memory 96000
cc_backend xm
mem_static 1500
symmetry false
sym_ignore true
scf_guess read
unrestricted false
scf_algorithm gdm
n_frozen_core 1000
$end

$multipole_field
YY 0.0001
$end


--------------------------------------------------------------
 ----------------------------------------------------------------
             Standard Nuclear Orientation (Angstroms)
    I     Atom           X                Y                Z
 ----------------------------------------------------------------
    1      N       0.0000000000     0.0000000000     0.0000000000
 ----------------------------------------------------------------
 Nuclear Repulsion Energy =     0.0000000000 hartrees
 There are        5 alpha and        2 beta electrons
 Requested basis set is aug-cc-pCV5Z
 There are 41 shells and 181 basis functions

 Total QAlloc Memory Limit 128000 MB
 Mega-Array Size      1467 MB
 MEM_STATIC part      1500 MB
 Applying Cartesian multipole field
    Component          Value
    ---------          -----
     (0,2,0)        1.00000E-04
 A cutoff of  1.0D-14 yielded    861 shell pairs
 There are     16961 function pairs (     32886 Cartesian)
 
 -------------------------------------------------------
 OpenMP Integral Computing Module                       
 Release: version 1.0, May 2013, Q-Chem Inc. Pittsburgh 
 -------------------------------------------------------
 Integral Job Info:
 Integral job number is                      11
 Integral operator is                         1
 short-range coefficients                     0
 long-range coefficients              100000000
 Omega coefficients                           0
 if combine SR and LR in K                    0
 Integral screening is                        0
 Integral computing path is                   2
 max size of driver memory is           6400000
 size of driver memory is               5498286
 size of scratch memory is             29551430
 max col of scratch BK array             194481
 max len of scratch array in speh3         5572
 max len of scratch index in speh4           72
 max int batch size is                      520
 min int batch size is                       52
 fixed nKL is                                30
 max L of basis functions is                  5
 order of int derivative is                   0
 number of shells is                         41
 number of basis is                         251
 number of cartesian basis is               251
 number of contracted shell pairs           861
 number of primitive shell pairs           2049
 maxK2 (contraction) of shell pair          100
 max number of K2 of shell pair               1
 max number of CS2 of shell pair             81
 max number of PS2 of shell pair            300
 mem total for path MDJ                  815924
 -------------------------------------------------------
 Smallest overlap matrix eigenvalue = 1.87E-05
 Guess MOs from SCF MO coefficient file
 Reading MOs from coefficient file
 Reading MOs from coefficient file
 A restricted hybrid HF-DFT SCF calculation will be
 performed using Geometric Direct Minimization
 Exchange:     0.2000 Hartree-Fock + 0.0800 Slater + 0.7200 B88
 Correlation:  0.1900 VWN1RPA + 0.8100 LYP
 Using Euler-Maclaurin-Lebedev (99,590) quadrature formula
 SCF converges when RMS gradient is below 1.0E-08
Using Q-Chem read-in guess as SCF_GUESS READ specified.

 using 8 threads for integral computing
 -------------------------------------------------------
 OpenMP Integral computing Module                
 Release: version 2.0, May 2017, Q-Chem Inc. Pleasanton 
 -------------------------------------------------------
 LTot/LBra/LKet=          18           8          10
 LTot/LBra/LKet=          17           8           9
 LTot/LBra/LKet=          18           8          10

 Q-Chem warning:

 in GenH1, ket side, handled with new code


 Q-Chem warning:

 in GenH1, ket side, handled with new code


 Q-Chem warning:

 in GenH1, ket side, handled with new code

TIMEINFO->: J/JK contribution 65.49 sec.
 -------------------------------------------------------
 OpenMP BLAS3 based DFT computing Module                
 Release: version 1.0, May 2013, Q-Chem Inc. Pittsburgh 
 -------------------------------------------------------
 ---------------------------------------
  Cycle       Energy        RMS Gradient
 ---------------------------------------
    1     -54.6056667976      5.85E-04 Normal BFGS step
TIMEINFO->: J/JK contribution 66.11 sec.
    2     -54.6056667358      6.60E-04 Normal BFGS step
TIMEINFO->: J/JK contribution 54.68 sec.
    3     -54.6056671149      3.56E-05 Normal BFGS step
TIMEINFO->: J/JK contribution 54.76 sec.
    4     -54.6056671164      2.27E-05 Normal BFGS step
TIMEINFO->: J/JK contribution 42.73 sec.
    5     -54.6056671169      3.07E-06 Normal BFGS step
TIMEINFO->: J/JK contribution 40.89 sec.
    6     -54.6056671169      1.19E-06 Normal BFGS step
TIMEINFO->: J/JK contribution 35.31 sec.
    7     -54.6056671169      2.01E-07 Normal BFGS step
TIMEINFO->: J/JK contribution 29.64 sec.
    8     -54.6056671169      7.12E-08 Normal BFGS step
TIMEINFO->: J/JK contribution 27.13 sec.
    9     -54.6056671169      1.78E-09 Convergence criterion met
 ---------------------------------------
 B3LYP orbitals are now ready for the XYG3 calculation.
 XYG3 energy = Exch (0.8033 HF  - 0.0140 Slater + 0.2107 Becke88) + 
               Corr (0.6789 LYP + 0.3211 MP2)
 SCF time:  CPU 452.80 s  wall 56.68 s
 SCF   energy in the final basis set = -54.53798235
 Total energy in the final basis set = -54.53798235

 Q-Chem fatal error occurred in module libmdc/qalloc.C, line 49:

 Illegal memory length in mega_alloc


 Please submit a crash report at q-chem.com/reporter 
 
 
 
User input: 5 of 7 
 
Q-Chem Developer Version!
                  Welcome to Q-Chem
     A Quantum Leap Into The Future Of Chemistry


 Q-Chem 5.1, Q-Chem, Inc., Pleasanton, CA (2018)

 Yihan Shao,  Zhengting Gan,  E. Epifanovsky,  A. T. B. Gilbert,  M. Wormit,  
 J. Kussmann,  A. W. Lange,  A. Behn,  Jia Deng,  Xintian Feng,  D. Ghosh,  
 M. Goldey,  P. R. Horn,  L. D. Jacobson,  I. Kaliman,  T. Kus,  A. Landau,  
 Jie Liu,  E. I. Proynov,  R. M. Richard,  R. P. Steele,  E. J. Sundstrom,  
 H. L. Woodcock III,  P. M. Zimmerman,  D. Zuev,  B. Albrecht,  E. Alguire,  
 S. A. Baeppler,  D. Barton,  Z. Benda,  Y. A. Bernard,  E. J. Berquist,  
 K. B. Bravaya,  H. Burton,  D. Casanova,  Chun-Min Chang,  Yunqing Chen,  
 A. Chien,  K. D. Closser,  M. P. Coons,  S. Coriani,  S. Dasgupta,  
 A. L. Dempwolff,  M. Diedenhofen,  Hainam Do,  R. G. Edgar,  Po-Tung Fang,  
 S. Faraji,  S. Fatehi,  Qingguo Feng,  K. D. Fenk,  J. Fosso-Tande,  
 Qinghui Ge,  A. Ghysels,  G. Gidofalvi,  J. Gomes,  J. Gonthier,  A. Gunina,  
 D. Hait,  M. W. D. Hanson-Heine,  P. H. P. Harbach,  A. W. Hauser,  
 J. E. Herr,  E. G. Hohenstein,  Z. C. Holden,  Kerwin Hui,  B. C. Huynh,  
 T.-C. Jagau,  Hyunjun Ji,  B. Kaduk,  K. Khistyaev,  Jaehoon Kim,  
 P. Klunzinger,  K. Koh,  D. Kosenkov,  L. Koulias,  T. Kowalczyk,  
 C. M. Krauter,  A. Kunitsa,  Ka Un Lao,  A. Laurent,  K. V. Lawler,  
 Joonho Lee,  D. Lefrancois,  S. Lehtola,  D. S. Levine,  Yi-Pei Li,  
 You-Sheng Lin,  Fenglai Liu,  E. Livshits,  A. Luenser,  P. Manohar,  
 E. Mansoor,  S. F. Manzer,  Shan-Ping Mao,  Yuezhi Mao,  N. Mardirossian,  
 A. V. Marenich,  T. Markovich,  L. A. Martinez-Martinez,  S. A. Maurer,  
 N. J. Mayhall,  S. C. McKenzie,  J.-M. Mewes,  A. F. Morrison,  
 J. W. Mullinax,  K. Nanda,  T. S. Nguyen-Beck,  R. Olivares-Amaya,  
 J. A. Parkhill,  T. M. Perrine,  F. Plasser,  P. Pokhilko,  S. Prager,  
 A. Prociuk,  E. Ramos,  D. R. Rehn,  F. Rob,  M. Schneider,  N. Sergueev,  
 S. M. Sharada,  S. Sharma,  D. W. Small,  T. Stauch,  T. Stein,  
 Yu-Chuan Su,  A. J. W. Thom,  A. Tkatchenko,  T. Tsuchimochi,  N. M. Tubman,  
 L. Vogt,  M. L. Vidal,  O. Vydrov,  M. A. Watson,  J. Wenzel,  
 M. de Wergifosse,  T. A. Wesolowski,  A. White,  J. Witte,  A. Yamada,  
 Jun Yang,  K. Yao,  S. Yeganeh,  S. R. Yost,  Zhi-Qiang You,  A. Zech,  
 Igor Ying Zhang,  Xing Zhang,  Yan Zhao,  Ying Zhu,  B. R. Brooks,  
 G. K. L. Chan,  C. J. Cramer,  M. S. Gordon,  W. J. Hehre,  A. Klamt,  
 M. W. Schmidt,  C. D. Sherrill,  D. G. Truhlar,  A. Aspuru-Guzik,  R. Baer,  
 A. T. Bell,  N. A. Besley,  Jeng-Da Chai,  A. E. DePrince, III,  
 R. A. DiStasio Jr.,  A. Dreuw,  B. D. Dunietz,  T. R. Furlani,  
 Chao-Ping Hsu,  Yousung Jung,  Jing Kong,  D. S. Lambrecht,  WanZhen Liang,  
 C. Ochsenfeld,  V. A. Rassolov,  L. V. Slipchenko,  J. E. Subotnik,  
 T. Van Voorhis,  J. M. Herbert,  A. I. Krylov,  P. M. W. Gill,  M. Head-Gordon

 Contributors to earlier versions of Q-Chem not listed above: 
 R. D. Adamson,  B. Austin,  J. Baker,  G. J. O. Beran,  K. Brandhorst,  
 S. T. Brown,  E. F. C. Byrd,  A. K. Chakraborty,  C.-L. Cheng,  
 Siu Hung Chien,  D. M. Chipman,  D. L. Crittenden,  H. Dachsel,  
 R. J. Doerksen,  A. D. Dutoi,  L. Fusti-Molnar,  W. A. Goddard III,  
 A. Golubeva-Zadorozhnaya,  S. R. Gwaltney,  G. Hawkins,  A. Heyden,  
 S. Hirata,  G. Kedziora,  F. J. Keil,  C. Kelley,  Jihan Kim,  R. A. King,  
 R. Z. Khaliullin,  P. P. Korambath,  W. Kurlancheek,  A. M. Lee,  M. S. Lee,  
 S. V. Levchenko,  Ching Yeh Lin,  D. Liotard,  R. C. Lochan,  I. Lotan,  
 P. E. Maslen,  N. Nair,  D. P. O'Neill,  D. Neuhauser,  E. Neuscamman,  
 C. M. Oana,  R. Olson,  B. Peters,  R. Peverati,  P. A. Pieniazek,  
 Y. M. Rhee,  J. Ritchie,  M. A. Rohrdanz,  E. Rosta,  N. J. Russ,  
 H. F. Schaefer III,  N. E. Schultz,  N. Shenvi,  A. C. Simmonett,  A. Sodt,  
 D. Stuck,  K. S. Thanthiriwatte,  V. Vanovschi,  Tao Wang,  A. Warshel,  
 C. F. Williams,  Q. Wu,  X. Xu,  W. Zhang

 Please cite Q-Chem as follows:
 Y. Shao et al., Mol. Phys. 113, 184-215 (2015)
 DOI: 10.1080/00268976.2014.952696

 Q-Chem 5.1.1 for Intel X86 EM64T Linux

 Parts of Q-Chem use Armadillo 8.300.2 (Tropical Shenanigans).
 http://arma.sourceforge.net/

 Q-Chem begins on Fri Oct 23 03:59:55 2020  

Host: n0090.mhg0
0

     Scratch files written to /local/scratch/users/yhljason/N_XYG3_aug-cc-pcV5Z.inp20201023032254//
The previous job contains 0 fragments, simply inherited here
Input Ideriv = 1
Curr. Ideriv = -1
Max.  Ideriv = 1

Checking the input file for inconsistencies... 	...done.

--------------------------------------------------------------
User input:
--------------------------------------------------------------
$molecule
read
$end

$rem

jobtype sp
exchange XYG3
xc_grid 000099000590
basis aug-cc-pcV5Z

max_scf_cycles 200
thresh 14
scf_convergence 8
mem_total 128000
cc_memory 96000
cc_backend xm
mem_static 1500
symmetry false
sym_ignore true
scf_guess read
unrestricted false
scf_algorithm gdm
n_frozen_core 1000
$end

$multipole_field
YY -0.0001
$end


--------------------------------------------------------------
 ----------------------------------------------------------------
             Standard Nuclear Orientation (Angstroms)
    I     Atom           X                Y                Z
 ----------------------------------------------------------------
    1      N       0.0000000000     0.0000000000     0.0000000000
 ----------------------------------------------------------------
 Nuclear Repulsion Energy =     0.0000000000 hartrees
 There are        5 alpha and        2 beta electrons
 Requested basis set is aug-cc-pCV5Z
 There are 41 shells and 181 basis functions

 Total QAlloc Memory Limit 128000 MB
 Mega-Array Size      1467 MB
 MEM_STATIC part      1500 MB
 Applying Cartesian multipole field
    Component          Value
    ---------          -----
     (0,2,0)       -1.00000E-04
 A cutoff of  1.0D-14 yielded    861 shell pairs
 There are     16961 function pairs (     32886 Cartesian)
 
 -------------------------------------------------------
 OpenMP Integral Computing Module                       
 Release: version 1.0, May 2013, Q-Chem Inc. Pittsburgh 
 -------------------------------------------------------
 Integral Job Info:
 Integral job number is                      11
 Integral operator is                         1
 short-range coefficients                     0
 long-range coefficients              100000000
 Omega coefficients                           0
 if combine SR and LR in K                    0
 Integral screening is                        0
 Integral computing path is                   2
 max size of driver memory is           6400000
 size of driver memory is               5498286
 size of scratch memory is             29551430
 max col of scratch BK array             194481
 max len of scratch array in speh3         5572
 max len of scratch index in speh4           72
 max int batch size is                      520
 min int batch size is                       52
 fixed nKL is                                30
 max L of basis functions is                  5
 order of int derivative is                   0
 number of shells is                         41
 number of basis is                         251
 number of cartesian basis is               251
 number of contracted shell pairs           861
 number of primitive shell pairs           2049
 maxK2 (contraction) of shell pair          100
 max number of K2 of shell pair               1
 max number of CS2 of shell pair             81
 max number of PS2 of shell pair            300
 mem total for path MDJ                  815924
 -------------------------------------------------------
 Smallest overlap matrix eigenvalue = 1.87E-05
 Guess MOs from SCF MO coefficient file
 Reading MOs from coefficient file
 Reading MOs from coefficient file
 A restricted hybrid HF-DFT SCF calculation will be
 performed using Geometric Direct Minimization
 Exchange:     0.2000 Hartree-Fock + 0.0800 Slater + 0.7200 B88
 Correlation:  0.1900 VWN1RPA + 0.8100 LYP
 Using Euler-Maclaurin-Lebedev (99,590) quadrature formula
 SCF converges when RMS gradient is below 1.0E-08
Using Q-Chem read-in guess as SCF_GUESS READ specified.

 using 8 threads for integral computing
 -------------------------------------------------------
 OpenMP Integral computing Module                
 Release: version 2.0, May 2017, Q-Chem Inc. Pleasanton 
 -------------------------------------------------------
 LTot/LBra/LKet=          18           8          10
 LTot/LBra/LKet=          17           8           9
 LTot/LBra/LKet=          18           8          10

 Q-Chem warning:

 in GenH1, ket side, handled with new code


 Q-Chem warning:

 in GenH1, ket side, handled with new code

 LTot/LBra/LKet=          17           8           9

 Q-Chem warning:

 in GenH1, ket side, handled with new code


 Q-Chem warning:

 in GenH1, ket side, handled with new code

TIMEINFO->: J/JK contribution 65.73 sec.
 -------------------------------------------------------
 OpenMP BLAS3 based DFT computing Module                
 Release: version 1.0, May 2013, Q-Chem Inc. Pittsburgh 
 -------------------------------------------------------
 ---------------------------------------
  Cycle       Energy        RMS Gradient
 ---------------------------------------
    1     -54.6048377736      8.78E-04 Normal BFGS step
TIMEINFO->: J/JK contribution 66.41 sec.
    2     -54.6048379032      8.43E-04 Normal BFGS step
TIMEINFO->: J/JK contribution 54.61 sec.
    3     -54.6048382918      6.91E-05 Normal BFGS step
TIMEINFO->: J/JK contribution 60.12 sec.
    4     -54.6048382994      7.53E-05 Normal BFGS step
TIMEINFO->: J/JK contribution 48.00 sec.
    5     -54.6048383022      9.62E-06 Normal BFGS step
TIMEINFO->: J/JK contribution 46.06 sec.
    6     -54.6048383022      1.92E-06 Normal BFGS step
TIMEINFO->: J/JK contribution 39.39 sec.
    7     -54.6048383022      2.18E-07 Normal BFGS step
TIMEINFO->: J/JK contribution 30.44 sec.
    8     -54.6048383022      1.31E-07 Normal BFGS step
TIMEINFO->: J/JK contribution 28.46 sec.
    9     -54.6048383022      4.03E-09 Convergence criterion met
 ---------------------------------------
 B3LYP orbitals are now ready for the XYG3 calculation.
 XYG3 energy = Exch (0.8033 HF  - 0.0140 Slater + 0.2107 Becke88) + 
               Corr (0.6789 LYP + 0.3211 MP2)
 SCF time:  CPU 475.41 s  wall 59.53 s
 SCF   energy in the final basis set = -54.53717862
 Total energy in the final basis set = -54.53717862

 Q-Chem fatal error occurred in module libmdc/qalloc.C, line 49:

 Illegal memory length in mega_alloc


 Please submit a crash report at q-chem.com/reporter 
 
 
 
User input: 6 of 7 
 
Q-Chem Developer Version!
                  Welcome to Q-Chem
     A Quantum Leap Into The Future Of Chemistry


 Q-Chem 5.1, Q-Chem, Inc., Pleasanton, CA (2018)

 Yihan Shao,  Zhengting Gan,  E. Epifanovsky,  A. T. B. Gilbert,  M. Wormit,  
 J. Kussmann,  A. W. Lange,  A. Behn,  Jia Deng,  Xintian Feng,  D. Ghosh,  
 M. Goldey,  P. R. Horn,  L. D. Jacobson,  I. Kaliman,  T. Kus,  A. Landau,  
 Jie Liu,  E. I. Proynov,  R. M. Richard,  R. P. Steele,  E. J. Sundstrom,  
 H. L. Woodcock III,  P. M. Zimmerman,  D. Zuev,  B. Albrecht,  E. Alguire,  
 S. A. Baeppler,  D. Barton,  Z. Benda,  Y. A. Bernard,  E. J. Berquist,  
 K. B. Bravaya,  H. Burton,  D. Casanova,  Chun-Min Chang,  Yunqing Chen,  
 A. Chien,  K. D. Closser,  M. P. Coons,  S. Coriani,  S. Dasgupta,  
 A. L. Dempwolff,  M. Diedenhofen,  Hainam Do,  R. G. Edgar,  Po-Tung Fang,  
 S. Faraji,  S. Fatehi,  Qingguo Feng,  K. D. Fenk,  J. Fosso-Tande,  
 Qinghui Ge,  A. Ghysels,  G. Gidofalvi,  J. Gomes,  J. Gonthier,  A. Gunina,  
 D. Hait,  M. W. D. Hanson-Heine,  P. H. P. Harbach,  A. W. Hauser,  
 J. E. Herr,  E. G. Hohenstein,  Z. C. Holden,  Kerwin Hui,  B. C. Huynh,  
 T.-C. Jagau,  Hyunjun Ji,  B. Kaduk,  K. Khistyaev,  Jaehoon Kim,  
 P. Klunzinger,  K. Koh,  D. Kosenkov,  L. Koulias,  T. Kowalczyk,  
 C. M. Krauter,  A. Kunitsa,  Ka Un Lao,  A. Laurent,  K. V. Lawler,  
 Joonho Lee,  D. Lefrancois,  S. Lehtola,  D. S. Levine,  Yi-Pei Li,  
 You-Sheng Lin,  Fenglai Liu,  E. Livshits,  A. Luenser,  P. Manohar,  
 E. Mansoor,  S. F. Manzer,  Shan-Ping Mao,  Yuezhi Mao,  N. Mardirossian,  
 A. V. Marenich,  T. Markovich,  L. A. Martinez-Martinez,  S. A. Maurer,  
 N. J. Mayhall,  S. C. McKenzie,  J.-M. Mewes,  A. F. Morrison,  
 J. W. Mullinax,  K. Nanda,  T. S. Nguyen-Beck,  R. Olivares-Amaya,  
 J. A. Parkhill,  T. M. Perrine,  F. Plasser,  P. Pokhilko,  S. Prager,  
 A. Prociuk,  E. Ramos,  D. R. Rehn,  F. Rob,  M. Schneider,  N. Sergueev,  
 S. M. Sharada,  S. Sharma,  D. W. Small,  T. Stauch,  T. Stein,  
 Yu-Chuan Su,  A. J. W. Thom,  A. Tkatchenko,  T. Tsuchimochi,  N. M. Tubman,  
 L. Vogt,  M. L. Vidal,  O. Vydrov,  M. A. Watson,  J. Wenzel,  
 M. de Wergifosse,  T. A. Wesolowski,  A. White,  J. Witte,  A. Yamada,  
 Jun Yang,  K. Yao,  S. Yeganeh,  S. R. Yost,  Zhi-Qiang You,  A. Zech,  
 Igor Ying Zhang,  Xing Zhang,  Yan Zhao,  Ying Zhu,  B. R. Brooks,  
 G. K. L. Chan,  C. J. Cramer,  M. S. Gordon,  W. J. Hehre,  A. Klamt,  
 M. W. Schmidt,  C. D. Sherrill,  D. G. Truhlar,  A. Aspuru-Guzik,  R. Baer,  
 A. T. Bell,  N. A. Besley,  Jeng-Da Chai,  A. E. DePrince, III,  
 R. A. DiStasio Jr.,  A. Dreuw,  B. D. Dunietz,  T. R. Furlani,  
 Chao-Ping Hsu,  Yousung Jung,  Jing Kong,  D. S. Lambrecht,  WanZhen Liang,  
 C. Ochsenfeld,  V. A. Rassolov,  L. V. Slipchenko,  J. E. Subotnik,  
 T. Van Voorhis,  J. M. Herbert,  A. I. Krylov,  P. M. W. Gill,  M. Head-Gordon

 Contributors to earlier versions of Q-Chem not listed above: 
 R. D. Adamson,  B. Austin,  J. Baker,  G. J. O. Beran,  K. Brandhorst,  
 S. T. Brown,  E. F. C. Byrd,  A. K. Chakraborty,  C.-L. Cheng,  
 Siu Hung Chien,  D. M. Chipman,  D. L. Crittenden,  H. Dachsel,  
 R. J. Doerksen,  A. D. Dutoi,  L. Fusti-Molnar,  W. A. Goddard III,  
 A. Golubeva-Zadorozhnaya,  S. R. Gwaltney,  G. Hawkins,  A. Heyden,  
 S. Hirata,  G. Kedziora,  F. J. Keil,  C. Kelley,  Jihan Kim,  R. A. King,  
 R. Z. Khaliullin,  P. P. Korambath,  W. Kurlancheek,  A. M. Lee,  M. S. Lee,  
 S. V. Levchenko,  Ching Yeh Lin,  D. Liotard,  R. C. Lochan,  I. Lotan,  
 P. E. Maslen,  N. Nair,  D. P. O'Neill,  D. Neuhauser,  E. Neuscamman,  
 C. M. Oana,  R. Olson,  B. Peters,  R. Peverati,  P. A. Pieniazek,  
 Y. M. Rhee,  J. Ritchie,  M. A. Rohrdanz,  E. Rosta,  N. J. Russ,  
 H. F. Schaefer III,  N. E. Schultz,  N. Shenvi,  A. C. Simmonett,  A. Sodt,  
 D. Stuck,  K. S. Thanthiriwatte,  V. Vanovschi,  Tao Wang,  A. Warshel,  
 C. F. Williams,  Q. Wu,  X. Xu,  W. Zhang

 Please cite Q-Chem as follows:
 Y. Shao et al., Mol. Phys. 113, 184-215 (2015)
 DOI: 10.1080/00268976.2014.952696

 Q-Chem 5.1.1 for Intel X86 EM64T Linux

 Parts of Q-Chem use Armadillo 8.300.2 (Tropical Shenanigans).
 http://arma.sourceforge.net/

 Q-Chem begins on Fri Oct 23 04:00:58 2020  

Host: n0090.mhg0
0

     Scratch files written to /local/scratch/users/yhljason/N_XYG3_aug-cc-pcV5Z.inp20201023032254//
The previous job contains 0 fragments, simply inherited here
Input Ideriv = 1
Curr. Ideriv = -1
Max.  Ideriv = 1

Checking the input file for inconsistencies... 	...done.

--------------------------------------------------------------
User input:
--------------------------------------------------------------
$molecule
read
$end

$rem

jobtype sp
exchange XYG3
xc_grid 000099000590
basis aug-cc-pcV5Z

max_scf_cycles 200
thresh 14
scf_convergence 8
mem_total 128000
cc_memory 96000
cc_backend xm
mem_static 1500
symmetry false
sym_ignore true
scf_guess read
unrestricted false
scf_algorithm gdm
n_frozen_core 1000
$end

$multipole_field
ZZ 0.0001
$end


--------------------------------------------------------------
 ----------------------------------------------------------------
             Standard Nuclear Orientation (Angstroms)
    I     Atom           X                Y                Z
 ----------------------------------------------------------------
    1      N       0.0000000000     0.0000000000     0.0000000000
 ----------------------------------------------------------------
 Nuclear Repulsion Energy =     0.0000000000 hartrees
 There are        5 alpha and        2 beta electrons
 Requested basis set is aug-cc-pCV5Z
 There are 41 shells and 181 basis functions

 Total QAlloc Memory Limit 128000 MB
 Mega-Array Size      1467 MB
 MEM_STATIC part      1500 MB
 Applying Cartesian multipole field
    Component          Value
    ---------          -----
     (0,0,2)        1.00000E-04
 A cutoff of  1.0D-14 yielded    861 shell pairs
 There are     16961 function pairs (     32886 Cartesian)
 
 -------------------------------------------------------
 OpenMP Integral Computing Module                       
 Release: version 1.0, May 2013, Q-Chem Inc. Pittsburgh 
 -------------------------------------------------------
 Integral Job Info:
 Integral job number is                      11
 Integral operator is                         1
 short-range coefficients                     0
 long-range coefficients              100000000
 Omega coefficients                           0
 if combine SR and LR in K                    0
 Integral screening is                        0
 Integral computing path is                   2
 max size of driver memory is           6400000
 size of driver memory is               5498286
 size of scratch memory is             29551430
 max col of scratch BK array             194481
 max len of scratch array in speh3         5572
 max len of scratch index in speh4           72
 max int batch size is                      520
 min int batch size is                       52
 fixed nKL is                                30
 max L of basis functions is                  5
 order of int derivative is                   0
 number of shells is                         41
 number of basis is                         251
 number of cartesian basis is               251
 number of contracted shell pairs           861
 number of primitive shell pairs           2049
 maxK2 (contraction) of shell pair          100
 max number of K2 of shell pair               1
 max number of CS2 of shell pair             81
 max number of PS2 of shell pair            300
 mem total for path MDJ                  815924
 -------------------------------------------------------
 Smallest overlap matrix eigenvalue = 1.87E-05
 Guess MOs from SCF MO coefficient file
 Reading MOs from coefficient file
 Reading MOs from coefficient file
 A restricted hybrid HF-DFT SCF calculation will be
 performed using Geometric Direct Minimization
 Exchange:     0.2000 Hartree-Fock + 0.0800 Slater + 0.7200 B88
 Correlation:  0.1900 VWN1RPA + 0.8100 LYP
 Using Euler-Maclaurin-Lebedev (99,590) quadrature formula
 SCF converges when RMS gradient is below 1.0E-08
Using Q-Chem read-in guess as SCF_GUESS READ specified.

 using 8 threads for integral computing
 -------------------------------------------------------
 OpenMP Integral computing Module                
 Release: version 2.0, May 2017, Q-Chem Inc. Pleasanton 
 -------------------------------------------------------
 LTot/LBra/LKet=          18           8          10
 LTot/LBra/LKet=          18           8          10

 Q-Chem warning:

 in GenH1, ket side, handled with new code


 Q-Chem warning:

 in GenH1, ket side, handled with new code

TIMEINFO->: J/JK contribution 66.12 sec.
 -------------------------------------------------------
 OpenMP BLAS3 based DFT computing Module                
 Release: version 1.0, May 2013, Q-Chem Inc. Pittsburgh 
 -------------------------------------------------------
 ---------------------------------------
  Cycle       Energy        RMS Gradient
 ---------------------------------------
    1     -54.6056667976      5.85E-04 Normal BFGS step
TIMEINFO->: J/JK contribution 66.34 sec.
    2     -54.6056667358      6.60E-04 Normal BFGS step
TIMEINFO->: J/JK contribution 55.36 sec.
    3     -54.6056671149      3.56E-05 Normal BFGS step
TIMEINFO->: J/JK contribution 55.40 sec.
    4     -54.6056671164      2.27E-05 Normal BFGS step
TIMEINFO->: J/JK contribution 43.31 sec.
    5     -54.6056671169      3.07E-06 Normal BFGS step
TIMEINFO->: J/JK contribution 41.39 sec.
    6     -54.6056671169      1.19E-06 Normal BFGS step
TIMEINFO->: J/JK contribution 35.35 sec.
    7     -54.6056671169      2.01E-07 Normal BFGS step
TIMEINFO->: J/JK contribution 30.25 sec.
    8     -54.6056671169      7.12E-08 Normal BFGS step
TIMEINFO->: J/JK contribution 26.98 sec.
   GDM::WARNING energy changes are now smaller than effective accuracy.
   GDM::        calculation will continue, but THRESH should be increased
   GDM::        or SCF_CONVERGENCE decreased.
   GDM::        effective_thresh =   5.000000000000000E-011
    9     -54.6056671169      1.78E-09 Convergence criterion met
 ---------------------------------------
 B3LYP orbitals are now ready for the XYG3 calculation.
 XYG3 energy = Exch (0.8033 HF  - 0.0140 Slater + 0.2107 Becke88) + 
               Corr (0.6789 LYP + 0.3211 MP2)
 SCF time:  CPU 457.16 s  wall 57.38 s
 SCF   energy in the final basis set = -54.53798235
 Total energy in the final basis set = -54.53798235

 Q-Chem fatal error occurred in module libmdc/qalloc.C, line 49:

 Illegal memory length in mega_alloc


 Please submit a crash report at q-chem.com/reporter 
 
 
 
User input: 7 of 7 
 
Q-Chem Developer Version!
                  Welcome to Q-Chem
     A Quantum Leap Into The Future Of Chemistry


 Q-Chem 5.1, Q-Chem, Inc., Pleasanton, CA (2018)

 Yihan Shao,  Zhengting Gan,  E. Epifanovsky,  A. T. B. Gilbert,  M. Wormit,  
 J. Kussmann,  A. W. Lange,  A. Behn,  Jia Deng,  Xintian Feng,  D. Ghosh,  
 M. Goldey,  P. R. Horn,  L. D. Jacobson,  I. Kaliman,  T. Kus,  A. Landau,  
 Jie Liu,  E. I. Proynov,  R. M. Richard,  R. P. Steele,  E. J. Sundstrom,  
 H. L. Woodcock III,  P. M. Zimmerman,  D. Zuev,  B. Albrecht,  E. Alguire,  
 S. A. Baeppler,  D. Barton,  Z. Benda,  Y. A. Bernard,  E. J. Berquist,  
 K. B. Bravaya,  H. Burton,  D. Casanova,  Chun-Min Chang,  Yunqing Chen,  
 A. Chien,  K. D. Closser,  M. P. Coons,  S. Coriani,  S. Dasgupta,  
 A. L. Dempwolff,  M. Diedenhofen,  Hainam Do,  R. G. Edgar,  Po-Tung Fang,  
 S. Faraji,  S. Fatehi,  Qingguo Feng,  K. D. Fenk,  J. Fosso-Tande,  
 Qinghui Ge,  A. Ghysels,  G. Gidofalvi,  J. Gomes,  J. Gonthier,  A. Gunina,  
 D. Hait,  M. W. D. Hanson-Heine,  P. H. P. Harbach,  A. W. Hauser,  
 J. E. Herr,  E. G. Hohenstein,  Z. C. Holden,  Kerwin Hui,  B. C. Huynh,  
 T.-C. Jagau,  Hyunjun Ji,  B. Kaduk,  K. Khistyaev,  Jaehoon Kim,  
 P. Klunzinger,  K. Koh,  D. Kosenkov,  L. Koulias,  T. Kowalczyk,  
 C. M. Krauter,  A. Kunitsa,  Ka Un Lao,  A. Laurent,  K. V. Lawler,  
 Joonho Lee,  D. Lefrancois,  S. Lehtola,  D. S. Levine,  Yi-Pei Li,  
 You-Sheng Lin,  Fenglai Liu,  E. Livshits,  A. Luenser,  P. Manohar,  
 E. Mansoor,  S. F. Manzer,  Shan-Ping Mao,  Yuezhi Mao,  N. Mardirossian,  
 A. V. Marenich,  T. Markovich,  L. A. Martinez-Martinez,  S. A. Maurer,  
 N. J. Mayhall,  S. C. McKenzie,  J.-M. Mewes,  A. F. Morrison,  
 J. W. Mullinax,  K. Nanda,  T. S. Nguyen-Beck,  R. Olivares-Amaya,  
 J. A. Parkhill,  T. M. Perrine,  F. Plasser,  P. Pokhilko,  S. Prager,  
 A. Prociuk,  E. Ramos,  D. R. Rehn,  F. Rob,  M. Schneider,  N. Sergueev,  
 S. M. Sharada,  S. Sharma,  D. W. Small,  T. Stauch,  T. Stein,  
 Yu-Chuan Su,  A. J. W. Thom,  A. Tkatchenko,  T. Tsuchimochi,  N. M. Tubman,  
 L. Vogt,  M. L. Vidal,  O. Vydrov,  M. A. Watson,  J. Wenzel,  
 M. de Wergifosse,  T. A. Wesolowski,  A. White,  J. Witte,  A. Yamada,  
 Jun Yang,  K. Yao,  S. Yeganeh,  S. R. Yost,  Zhi-Qiang You,  A. Zech,  
 Igor Ying Zhang,  Xing Zhang,  Yan Zhao,  Ying Zhu,  B. R. Brooks,  
 G. K. L. Chan,  C. J. Cramer,  M. S. Gordon,  W. J. Hehre,  A. Klamt,  
 M. W. Schmidt,  C. D. Sherrill,  D. G. Truhlar,  A. Aspuru-Guzik,  R. Baer,  
 A. T. Bell,  N. A. Besley,  Jeng-Da Chai,  A. E. DePrince, III,  
 R. A. DiStasio Jr.,  A. Dreuw,  B. D. Dunietz,  T. R. Furlani,  
 Chao-Ping Hsu,  Yousung Jung,  Jing Kong,  D. S. Lambrecht,  WanZhen Liang,  
 C. Ochsenfeld,  V. A. Rassolov,  L. V. Slipchenko,  J. E. Subotnik,  
 T. Van Voorhis,  J. M. Herbert,  A. I. Krylov,  P. M. W. Gill,  M. Head-Gordon

 Contributors to earlier versions of Q-Chem not listed above: 
 R. D. Adamson,  B. Austin,  J. Baker,  G. J. O. Beran,  K. Brandhorst,  
 S. T. Brown,  E. F. C. Byrd,  A. K. Chakraborty,  C.-L. Cheng,  
 Siu Hung Chien,  D. M. Chipman,  D. L. Crittenden,  H. Dachsel,  
 R. J. Doerksen,  A. D. Dutoi,  L. Fusti-Molnar,  W. A. Goddard III,  
 A. Golubeva-Zadorozhnaya,  S. R. Gwaltney,  G. Hawkins,  A. Heyden,  
 S. Hirata,  G. Kedziora,  F. J. Keil,  C. Kelley,  Jihan Kim,  R. A. King,  
 R. Z. Khaliullin,  P. P. Korambath,  W. Kurlancheek,  A. M. Lee,  M. S. Lee,  
 S. V. Levchenko,  Ching Yeh Lin,  D. Liotard,  R. C. Lochan,  I. Lotan,  
 P. E. Maslen,  N. Nair,  D. P. O'Neill,  D. Neuhauser,  E. Neuscamman,  
 C. M. Oana,  R. Olson,  B. Peters,  R. Peverati,  P. A. Pieniazek,  
 Y. M. Rhee,  J. Ritchie,  M. A. Rohrdanz,  E. Rosta,  N. J. Russ,  
 H. F. Schaefer III,  N. E. Schultz,  N. Shenvi,  A. C. Simmonett,  A. Sodt,  
 D. Stuck,  K. S. Thanthiriwatte,  V. Vanovschi,  Tao Wang,  A. Warshel,  
 C. F. Williams,  Q. Wu,  X. Xu,  W. Zhang

 Please cite Q-Chem as follows:
 Y. Shao et al., Mol. Phys. 113, 184-215 (2015)
 DOI: 10.1080/00268976.2014.952696

 Q-Chem 5.1.1 for Intel X86 EM64T Linux

 Parts of Q-Chem use Armadillo 8.300.2 (Tropical Shenanigans).
 http://arma.sourceforge.net/

 Q-Chem begins on Fri Oct 23 04:01:58 2020  

Host: n0090.mhg0
0

     Scratch files written to /local/scratch/users/yhljason/N_XYG3_aug-cc-pcV5Z.inp20201023032254//
The previous job contains 0 fragments, simply inherited here
Input Ideriv = 1
Curr. Ideriv = -1
Max.  Ideriv = 1

Checking the input file for inconsistencies... 	...done.

--------------------------------------------------------------
User input:
--------------------------------------------------------------
$molecule
read
$end

$rem

jobtype sp
exchange XYG3
xc_grid 000099000590
basis aug-cc-pcV5Z

max_scf_cycles 200
thresh 14
scf_convergence 8
mem_total 128000
cc_memory 96000
cc_backend xm
mem_static 1500
symmetry false
sym_ignore true
scf_guess read
unrestricted false
scf_algorithm gdm
n_frozen_core 1000
$end

$multipole_field
ZZ -0.0001
$end

--------------------------------------------------------------
 ----------------------------------------------------------------
             Standard Nuclear Orientation (Angstroms)
    I     Atom           X                Y                Z
 ----------------------------------------------------------------
    1      N       0.0000000000     0.0000000000     0.0000000000
 ----------------------------------------------------------------
 Nuclear Repulsion Energy =     0.0000000000 hartrees
 There are        5 alpha and        2 beta electrons
 Requested basis set is aug-cc-pCV5Z
 There are 41 shells and 181 basis functions

 Total QAlloc Memory Limit 128000 MB
 Mega-Array Size      1467 MB
 MEM_STATIC part      1500 MB
 Applying Cartesian multipole field
    Component          Value
    ---------          -----
     (0,0,2)       -1.00000E-04
 A cutoff of  1.0D-14 yielded    861 shell pairs
 There are     16961 function pairs (     32886 Cartesian)
 
 -------------------------------------------------------
 OpenMP Integral Computing Module                       
 Release: version 1.0, May 2013, Q-Chem Inc. Pittsburgh 
 -------------------------------------------------------
 Integral Job Info:
 Integral job number is                      11
 Integral operator is                         1
 short-range coefficients                     0
 long-range coefficients              100000000
 Omega coefficients                           0
 if combine SR and LR in K                    0
 Integral screening is                        0
 Integral computing path is                   2
 max size of driver memory is           6400000
 size of driver memory is               5498286
 size of scratch memory is             29551430
 max col of scratch BK array             194481
 max len of scratch array in speh3         5572
 max len of scratch index in speh4           72
 max int batch size is                      520
 min int batch size is                       52
 fixed nKL is                                30
 max L of basis functions is                  5
 order of int derivative is                   0
 number of shells is                         41
 number of basis is                         251
 number of cartesian basis is               251
 number of contracted shell pairs           861
 number of primitive shell pairs           2049
 maxK2 (contraction) of shell pair          100
 max number of K2 of shell pair               1
 max number of CS2 of shell pair             81
 max number of PS2 of shell pair            300
 mem total for path MDJ                  815924
 -------------------------------------------------------
 Smallest overlap matrix eigenvalue = 1.87E-05
 Guess MOs from SCF MO coefficient file
 Reading MOs from coefficient file
 Reading MOs from coefficient file
 A restricted hybrid HF-DFT SCF calculation will be
 performed using Geometric Direct Minimization
 Exchange:     0.2000 Hartree-Fock + 0.0800 Slater + 0.7200 B88
 Correlation:  0.1900 VWN1RPA + 0.8100 LYP
 Using Euler-Maclaurin-Lebedev (99,590) quadrature formula
 SCF converges when RMS gradient is below 1.0E-08
Using Q-Chem read-in guess as SCF_GUESS READ specified.

 using 8 threads for integral computing
 -------------------------------------------------------
 OpenMP Integral computing Module                
 Release: version 2.0, May 2017, Q-Chem Inc. Pleasanton 
 -------------------------------------------------------
 LTot/LBra/LKet=          17           8           9
 LTot/LBra/LKet=          17           8           9

 Q-Chem warning:

 in GenH1, ket side, handled with new code

 LTot/LBra/LKet=          17           8           9

 Q-Chem warning:

 in GenH1, ket side, handled with new code


 Q-Chem warning:

 in GenH1, ket side, handled with new code

TIMEINFO->: J/JK contribution 65.99 sec.
 -------------------------------------------------------
 OpenMP BLAS3 based DFT computing Module                
 Release: version 1.0, May 2013, Q-Chem Inc. Pittsburgh 
 -------------------------------------------------------
 ---------------------------------------
  Cycle       Energy        RMS Gradient
 ---------------------------------------
    1     -54.6048377736      8.78E-04 Normal BFGS step
TIMEINFO->: J/JK contribution 67.08 sec.
    2     -54.6048379032      8.43E-04 Normal BFGS step
TIMEINFO->: J/JK contribution 54.86 sec.
    3     -54.6048382918      7.04E-05 Normal BFGS step
TIMEINFO->: J/JK contribution 60.51 sec.
    4     -54.6048382994      7.53E-05 Normal BFGS step
TIMEINFO->: J/JK contribution 48.48 sec.
    5     -54.6048383022      9.62E-06 Normal BFGS step
TIMEINFO->: J/JK contribution 46.31 sec.
    6     -54.6048383022      1.92E-06 Normal BFGS step
TIMEINFO->: J/JK contribution 39.49 sec.
    7     -54.6048383022      2.17E-07 Normal BFGS step
TIMEINFO->: J/JK contribution 28.30 sec.
    8     -54.6048383022      1.31E-07 Normal BFGS step
TIMEINFO->: J/JK contribution 25.93 sec.
    9     -54.6048383022      4.03E-09 Convergence criterion met
 ---------------------------------------
 B3LYP orbitals are now ready for the XYG3 calculation.
 XYG3 energy = Exch (0.8033 HF  - 0.0140 Slater + 0.2107 Becke88) + 
               Corr (0.6789 LYP + 0.3211 MP2)
 SCF time:  CPU 472.41 s  wall 59.15 s
 SCF   energy in the final basis set = -54.53717862
 Total energy in the final basis set = -54.53717862

 Q-Chem fatal error occurred in module libmdc/qalloc.C, line 49:

 Illegal memory length in mega_alloc


 Please submit a crash report at q-chem.com/reporter 
 
 
