Q-Chem Developer Version!
                  Welcome to Q-Chem
     A Quantum Leap Into The Future Of Chemistry


 Q-Chem 5.1, Q-Chem, Inc., Pleasanton, CA (2018)

 Yihan Shao,  Zhengting Gan,  E. Epifanovsky,  A. T. B. Gilbert,  M. Wormit,  
 J. Kussmann,  A. W. Lange,  A. Behn,  Jia Deng,  Xintian Feng,  D. Ghosh,  
 M. Goldey,  P. R. Horn,  L. D. Jacobson,  I. Kaliman,  T. Kus,  A. Landau,  
 Jie Liu,  E. I. Proynov,  R. M. Richard,  R. P. Steele,  E. J. Sundstrom,  
 H. L. Woodcock III,  P. M. Zimmerman,  D. Zuev,  B. Albrecht,  E. Alguire,  
 S. A. Baeppler,  D. Barton,  Z. Benda,  Y. A. Bernard,  E. J. Berquist,  
 K. B. Bravaya,  H. Burton,  D. Casanova,  Chun-Min Chang,  Yunqing Chen,  
 A. Chien,  K. D. Closser,  M. P. Coons,  S. Coriani,  S. Dasgupta,  
 A. L. Dempwolff,  M. Diedenhofen,  Hainam Do,  R. G. Edgar,  Po-Tung Fang,  
 S. Faraji,  S. Fatehi,  Qingguo Feng,  K. D. Fenk,  J. Fosso-Tande,  
 Qinghui Ge,  A. Ghysels,  G. Gidofalvi,  J. Gomes,  J. Gonthier,  A. Gunina,  
 D. Hait,  M. W. D. Hanson-Heine,  P. H. P. Harbach,  A. W. Hauser,  
 J. E. Herr,  E. G. Hohenstein,  Z. C. Holden,  Kerwin Hui,  B. C. Huynh,  
 T.-C. Jagau,  Hyunjun Ji,  B. Kaduk,  K. Khistyaev,  Jaehoon Kim,  
 P. Klunzinger,  K. Koh,  D. Kosenkov,  L. Koulias,  T. Kowalczyk,  
 C. M. Krauter,  A. Kunitsa,  Ka Un Lao,  A. Laurent,  K. V. Lawler,  
 Joonho Lee,  D. Lefrancois,  S. Lehtola,  D. S. Levine,  Yi-Pei Li,  
 You-Sheng Lin,  Fenglai Liu,  E. Livshits,  A. Luenser,  P. Manohar,  
 E. Mansoor,  S. F. Manzer,  Shan-Ping Mao,  Yuezhi Mao,  N. Mardirossian,  
 A. V. Marenich,  T. Markovich,  L. A. Martinez-Martinez,  S. A. Maurer,  
 N. J. Mayhall,  S. C. McKenzie,  J.-M. Mewes,  A. F. Morrison,  
 J. W. Mullinax,  K. Nanda,  T. S. Nguyen-Beck,  R. Olivares-Amaya,  
 J. A. Parkhill,  T. M. Perrine,  F. Plasser,  P. Pokhilko,  S. Prager,  
 A. Prociuk,  E. Ramos,  D. R. Rehn,  F. Rob,  M. Schneider,  N. Sergueev,  
 S. M. Sharada,  S. Sharma,  D. W. Small,  T. Stauch,  T. Stein,  
 Yu-Chuan Su,  A. J. W. Thom,  A. Tkatchenko,  T. Tsuchimochi,  N. M. Tubman,  
 L. Vogt,  M. L. Vidal,  O. Vydrov,  M. A. Watson,  J. Wenzel,  
 M. de Wergifosse,  T. A. Wesolowski,  A. White,  J. Witte,  A. Yamada,  
 Jun Yang,  K. Yao,  S. Yeganeh,  S. R. Yost,  Zhi-Qiang You,  A. Zech,  
 Igor Ying Zhang,  Xing Zhang,  Yan Zhao,  Ying Zhu,  B. R. Brooks,  
 G. K. L. Chan,  C. J. Cramer,  M. S. Gordon,  W. J. Hehre,  A. Klamt,  
 M. W. Schmidt,  C. D. Sherrill,  D. G. Truhlar,  A. Aspuru-Guzik,  R. Baer,  
 A. T. Bell,  N. A. Besley,  Jeng-Da Chai,  A. E. DePrince, III,  
 R. A. DiStasio Jr.,  A. Dreuw,  B. D. Dunietz,  T. R. Furlani,  
 Chao-Ping Hsu,  Yousung Jung,  Jing Kong,  D. S. Lambrecht,  WanZhen Liang,  
 C. Ochsenfeld,  V. A. Rassolov,  L. V. Slipchenko,  J. E. Subotnik,  
 T. Van Voorhis,  J. M. Herbert,  A. I. Krylov,  P. M. W. Gill,  M. Head-Gordon

 Contributors to earlier versions of Q-Chem not listed above: 
 R. D. Adamson,  B. Austin,  J. Baker,  G. J. O. Beran,  K. Brandhorst,  
 S. T. Brown,  E. F. C. Byrd,  A. K. Chakraborty,  C.-L. Cheng,  
 Siu Hung Chien,  D. M. Chipman,  D. L. Crittenden,  H. Dachsel,  
 R. J. Doerksen,  A. D. Dutoi,  L. Fusti-Molnar,  W. A. Goddard III,  
 A. Golubeva-Zadorozhnaya,  S. R. Gwaltney,  G. Hawkins,  A. Heyden,  
 S. Hirata,  G. Kedziora,  F. J. Keil,  C. Kelley,  Jihan Kim,  R. A. King,  
 R. Z. Khaliullin,  P. P. Korambath,  W. Kurlancheek,  A. M. Lee,  M. S. Lee,  
 S. V. Levchenko,  Ching Yeh Lin,  D. Liotard,  R. C. Lochan,  I. Lotan,  
 P. E. Maslen,  N. Nair,  D. P. O'Neill,  D. Neuhauser,  E. Neuscamman,  
 C. M. Oana,  R. Olson,  B. Peters,  R. Peverati,  P. A. Pieniazek,  
 Y. M. Rhee,  J. Ritchie,  M. A. Rohrdanz,  E. Rosta,  N. J. Russ,  
 H. F. Schaefer III,  N. E. Schultz,  N. Shenvi,  A. C. Simmonett,  A. Sodt,  
 D. Stuck,  K. S. Thanthiriwatte,  V. Vanovschi,  Tao Wang,  A. Warshel,  
 C. F. Williams,  Q. Wu,  X. Xu,  W. Zhang

 Please cite Q-Chem as follows:
 Y. Shao et al., Mol. Phys. 113, 184-215 (2015)
 DOI: 10.1080/00268976.2014.952696

 Q-Chem 5.1.1 for Intel X86 EM64T Linux

 Parts of Q-Chem use Armadillo 8.300.2 (Tropical Shenanigans).
 http://arma.sourceforge.net/

 Q-Chem begins on Wed Oct 21 03:29:36 2020  

Host: n0094.mhg0
0

     Scratch files written to /local/scratch/users/yhljason/PH2_XYGJOS_aug-cc-pcVQZ.inp20201021032932//
Input Ideriv = 1
Curr. Ideriv = -1
Max.  Ideriv = 1

Checking the input file for inconsistencies... 	...done.

--------------------------------------------------------------
User input:
--------------------------------------------------------------
$molecule
0 2
P1	0.0000	0.0000	0.0000
H2	0.0000	1.0229	0.9964
H3	0.0000	-1.0229	0.9964
$end

$rem
jobtype sp
exchange XYGJOS
xc_grid 000099000590
basis aug-cc-pcVQZ
aux_basis rimp2-aug-cc-pVQZ
max_scf_cycles 200
thresh 14
scf_convergence 8
scf_algorithm gdm
symmetry false
sym_ignore true
unrestricted false
gen_scfman false
internal_stability_iter 15
internal_stability_davidson_iter 200
mem_total 128000
cc_memory 96000
cc_backend xm
mem_static 1500
n_frozen_core 0
$end



--------------------------------------------------------------
 ----------------------------------------------------------------
             Standard Nuclear Orientation (Angstroms)
    I     Atom           X                Y                Z
 ----------------------------------------------------------------
    1      P       0.0000000000     0.0000000000     0.0000000000
    2      H       0.0000000000     1.0229000000     0.9964000000
    3      H       0.0000000000    -1.0229000000     0.9964000000
 ----------------------------------------------------------------
 Nuclear Repulsion Energy =    11.3759605773 hartrees
 There are        9 alpha and        8 beta electrons
 Requested basis set is aug-cc-pCVQZ
 There are 62 shells and 226 basis functions

 Total QAlloc Memory Limit 128000 MB
 Mega-Array Size      1467 MB
 MEM_STATIC part      1500 MB

                       Distance Matrix (Angstroms)
             P (  1)   H (  2)
   H (  2)  1.427984
   H (  3)  1.427984  2.045800
 
 Requested basis set is rimp2-aug-cc-pVQZ
 There are 84 shells and 354 basis functions
 A cutoff of  1.0D-14 yielded   1953 shell pairs
 There are     26129 function pairs (     41436 Cartesian)
 
 -------------------------------------------------------
 OpenMP Integral Computing Module                       
 Release: version 1.0, May 2013, Q-Chem Inc. Pittsburgh 
 -------------------------------------------------------
 Integral Job Info:
 Integral job number is                      11
 Integral operator is                         1
 short-range coefficients                     0
 long-range coefficients              100000000
 Omega coefficients                           0
 if combine SR and LR in K                    0
 Integral screening is                        0
 Integral computing path is                   2
 max size of driver memory is           3200000
 size of driver memory is               1704330
 size of scratch memory is             29435624
 max col of scratch BK array              50625
 max len of scratch array in speh3         2114
 max len of scratch index in speh4           50
 max int batch size is                      520
 min int batch size is                       52
 fixed nKL is                                22
 max L of basis functions is                  4
 order of int derivative is                   0
 number of shells is                         62
 number of basis is                         284
 number of cartesian basis is               284
 number of contracted shell pairs          1953
 number of primitive shell pairs           6866
 maxK2 (contraction) of shell pair          169
 max number of K2 of shell pair               1
 max number of CS2 of shell pair            227
 max number of PS2 of shell pair           1014
 mem total for path MDJ                  662152
 -------------------------------------------------------
 Smallest overlap matrix eigenvalue = 3.01E-05

 Scale SEOQF with 1.000000e-01/1.000000e-01/1.000000e-01

 Standard Electronic Orientation quadrupole field applied
 Constructing guess Fock matrix from core Hamiltonian
 Applying Wolfsberg-Helmholtz approximation
 A restricted hybrid HF-DFT SCF calculation will be
 performed using Geometric Direct Minimization
 Exchange:     0.2000 Hartree-Fock + 0.0800 Slater + 0.7200 B88
 Correlation:  0.1900 VWN1RPA + 0.8100 LYP
 Using Euler-Maclaurin-Lebedev (99,590) quadrature formula
 SCF converges when RMS gradient is below 1.0E-08
 using 8 threads for integral computing
 -------------------------------------------------------
 OpenMP Integral computing Module                
 Release: version 2.0, May 2017, Q-Chem Inc. Pleasanton 
 -------------------------------------------------------
TIMEINFO->: J/JK contribution 103.68 sec.
 -------------------------------------------------------
 OpenMP BLAS3 based DFT computing Module                
 Release: version 1.0, May 2013, Q-Chem Inc. Pittsburgh 
 -------------------------------------------------------
 ---------------------------------------
  Cycle       Energy        RMS Gradient
 ---------------------------------------
    1    -168.4792001305      7.11E+00 Descent step
TIMEINFO->: J/JK contribution 104.20 sec.
    2    -175.2070669966      3.08E+01 Line search: understep
TIMEINFO->: J/JK contribution 105.38 sec.
    3    -226.0466529957      5.31E+00 Descent step
TIMEINFO->: J/JK contribution 104.85 sec.
    4    -230.3161398877      2.93E+01 Line search: understep
TIMEINFO->: J/JK contribution 106.83 sec.
    5    -257.5557740007      4.34E+00 Descent step
TIMEINFO->: J/JK contribution 106.54 sec.
   GDM::BFGS:   rebuilding Hinv to be positive definite
    6    -261.6059820046      3.53E+00 Descent step
TIMEINFO->: J/JK contribution 106.28 sec.
    7    -265.4137556428      3.31E+01 Line search: understep
TIMEINFO->: J/JK contribution 106.68 sec.
   GDM::BFGS:   rebuilding Hinv to be positive definite
    8    -292.3767590629      9.13E+00 Descent step
TIMEINFO->: J/JK contribution 106.52 sec.
   GDM::BFGS:   rebuilding Hinv to be positive definite
    9    -297.8995756371      3.04E+00 Descent step
TIMEINFO->: J/JK contribution 106.42 sec.
   10    -300.9005601134      1.75E+01 Line search: understep
TIMEINFO->: J/JK contribution 105.92 sec.
   GDM::BFGS:   rebuilding Hinv to be positive definite
   11    -307.9384179490      4.00E+00 Descent step
TIMEINFO->: J/JK contribution 106.73 sec.
   GDM::BFGS:   rebuilding Hinv to be positive definite
   12    -310.1538390321      2.39E+00 Descent step
TIMEINFO->: J/JK contribution 105.19 sec.
   13    -312.1460655306      4.09E+01 Line search: understep
TIMEINFO->: J/JK contribution 104.89 sec.
   GDM::BFGS:   rebuilding Hinv to be positive definite
   14    -321.0999786725      1.42E+00 Descent step
TIMEINFO->: J/JK contribution 104.88 sec.
   15    -322.3363957088      5.61E+00 Line search: understep
TIMEINFO->: J/JK contribution 104.65 sec.
   GDM::BFGS:   rebuilding Hinv to be positive definite
   16    -325.9800672400      1.43E+00 Descent step
TIMEINFO->: J/JK contribution 105.75 sec.
   GDM::BFGS:   rebuilding Hinv to be positive definite
   17    -327.2294183868      1.16E+00 Descent step
TIMEINFO->: J/JK contribution 105.41 sec.
   GDM::BFGS:   rebuilding Hinv to be positive definite
   18    -328.4013913783      1.62E+00 Descent step
TIMEINFO->: J/JK contribution 107.60 sec.
   GDM::BFGS:   rebuilding Hinv to be positive definite
   19    -329.6427359175      1.50E+00 Descent step
TIMEINFO->: J/JK contribution 106.05 sec.
   GDM::BFGS:   rebuilding Hinv to be positive definite
   20    -330.8635196329      1.21E+00 Descent step
TIMEINFO->: J/JK contribution 106.57 sec.
   GDM::BFGS:   rebuilding Hinv to be positive definite
   21    -331.8922731153      1.53E+00 Descent step
TIMEINFO->: J/JK contribution 107.31 sec.
   GDM::BFGS:   rebuilding Hinv to be positive definite
   22    -332.8948987841      8.33E-01 Descent step
TIMEINFO->: J/JK contribution 107.60 sec.
   GDM::BFGS:   rebuilding Hinv to be positive definite
   23    -333.6946145714      8.49E-01 Descent step
TIMEINFO->: J/JK contribution 106.42 sec.
   GDM::BFGS:   rebuilding Hinv to be positive definite
   24    -334.5439437460      1.56E+00 Descent step
TIMEINFO->: J/JK contribution 105.91 sec.
   GDM::BFGS:   rebuilding Hinv to be positive definite
   25    -335.4823176970      9.64E-01 Descent step
TIMEINFO->: J/JK contribution 107.17 sec.
   GDM::BFGS:   rebuilding Hinv to be positive definite
   26    -336.2746138927      8.93E-01 Descent step
TIMEINFO->: J/JK contribution 105.36 sec.
   27    -336.9644452209      9.38E-01 Descent step
TIMEINFO->: J/JK contribution 105.02 sec.
   28    -337.6548707111      5.62E-01 Descent step
TIMEINFO->: J/JK contribution 105.60 sec.
   29    -338.1603816472      7.40E-01 Descent step
TIMEINFO->: J/JK contribution 104.50 sec.
   30    -338.7458533595      7.49E-01 Descent step
TIMEINFO->: J/JK contribution 105.31 sec.
   31    -339.2658705100      6.11E-01 Descent step
TIMEINFO->: J/JK contribution 106.82 sec.
   32    -339.6290967275      6.71E-01 Descent step
TIMEINFO->: J/JK contribution 108.28 sec.
   GDM::BFGS:   rebuilding Hinv to be positive definite
   33    -339.9937029372      1.30E+00 Descent step
TIMEINFO->: J/JK contribution 106.82 sec.
   34    -340.6026800037      8.23E-01 Descent step
TIMEINFO->: J/JK contribution 107.68 sec.
   35    -340.9532527919      8.90E-01 Descent step
TIMEINFO->: J/JK contribution 108.90 sec.
   36    -341.2210754429      4.18E-01 Descent step
TIMEINFO->: J/JK contribution 108.47 sec.
   37    -341.3867755630      3.84E-01 Descent step
TIMEINFO->: J/JK contribution 106.24 sec.
   GDM::BFGS:   rebuilding Hinv to be positive definite
   38    -341.5458562554      7.57E-01 Descent step
TIMEINFO->: J/JK contribution 107.90 sec.
   39    -341.7762920063      3.96E-01 Descent step
TIMEINFO->: J/JK contribution 107.43 sec.
   40    -341.8314279280      1.74E-01 Dog-leg BFGS step
TIMEINFO->: J/JK contribution 105.39 sec.
   41    -341.8245107938      7.78E-02 Line search: overstep
TIMEINFO->: J/JK contribution 105.39 sec.
   42    -341.8452623308      5.85E-02 Dog-leg BFGS step
TIMEINFO->: J/JK contribution 105.27 sec.
   43    -341.8481207867      1.80E-02 Dog-leg BFGS step
TIMEINFO->: J/JK contribution 104.43 sec.
   44    -341.8464794539      2.14E-02 Line search: overstep
TIMEINFO->: J/JK contribution 105.55 sec.
   45    -341.8487969635      1.37E-02 Dog-leg BFGS step
TIMEINFO->: J/JK contribution 105.34 sec.
   46    -341.8487619144      1.21E-02 Line search: overstep
TIMEINFO->: J/JK contribution 105.60 sec.
   47    -341.8489705983      3.15E-03 Dog-leg BFGS step
TIMEINFO->: J/JK contribution 104.58 sec.
   48    -341.8489699196      2.92E-03 Line search: overstep
TIMEINFO->: J/JK contribution 106.55 sec.
   49    -341.8489917953      1.21E-03 Dog-leg BFGS step
TIMEINFO->: J/JK contribution 106.14 sec.
   50    -341.8489937228      1.18E-03 Normal BFGS step
TIMEINFO->: J/JK contribution 105.81 sec.
   51    -341.8489948828      7.49E-04 Normal BFGS step
TIMEINFO->: J/JK contribution 105.06 sec.
   52    -341.8489800698      2.97E-03 Line search: overstep
TIMEINFO->: J/JK contribution 106.70 sec.
   53    -341.8489953288      3.32E-04 Normal BFGS step
TIMEINFO->: J/JK contribution 105.70 sec.
   54    -341.8489956985      2.38E-04 Normal BFGS step
TIMEINFO->: J/JK contribution 105.87 sec.
   55    -341.8489958667      3.22E-04 Normal BFGS step
TIMEINFO->: J/JK contribution 104.62 sec.
   56    -341.8489971941      9.90E-04 Line search: understep
TIMEINFO->: J/JK contribution 104.00 sec.
   57    -341.8490204604      8.72E-03 Line search: understep
TIMEINFO->: J/JK contribution 102.42 sec.
   58    -341.8475763707      7.67E-02 Line search: overstep
TIMEINFO->: J/JK contribution 103.87 sec.
   59    -341.8490486948      1.57E-02 Line search: understep
TIMEINFO->: J/JK contribution 105.28 sec.
   60    -341.8480592832      7.11E-02 Line search: overstep
TIMEINFO->: J/JK contribution 104.48 sec.
   61    -341.8490720745      2.14E-02 Line search: understep
TIMEINFO->: J/JK contribution 105.42 sec.
   62    -341.8483664996      6.64E-02 Line search: overstep
TIMEINFO->: J/JK contribution 100.28 sec.
   63    -341.8490880646      2.60E-02 Line search: understep
TIMEINFO->: J/JK contribution 106.17 sec.
   64    -341.8485659439      6.25E-02 Line search: overstep
TIMEINFO->: J/JK contribution 107.28 sec.
   65    -341.8490963634      2.97E-02 Line search: understep
TIMEINFO->: J/JK contribution 106.54 sec.
   66    -341.8486986539      5.93E-02 Line search: overstep
TIMEINFO->: J/JK contribution 106.73 sec.
   67    -341.8490982818      4.94E-02 Descent step
TIMEINFO->: J/JK contribution 105.14 sec.
   68    -341.8491937694      3.19E-02 Line search: understep
TIMEINFO->: J/JK contribution 106.65 sec.
   69    -341.8500590091      2.61E-02 Line search: understep
TIMEINFO->: J/JK contribution 105.10 sec.
   GDM::BFGS:   rebuilding Hinv to be positive definite
   70    -341.8581768065      1.49E-01 Dog-leg BFGS step
TIMEINFO->: J/JK contribution 105.00 sec.
   GDM::BFGS:   rebuilding Hinv to be positive definite
   71    -341.9371529238      2.31E-01 Descent step
TIMEINFO->: J/JK contribution 104.90 sec.
   72    -342.0348623829      2.16E-01 Dog-leg BFGS step
TIMEINFO->: J/JK contribution 105.28 sec.
   GDM::BFGS:   rebuilding Hinv to be positive definite
   73    -342.1530948456      5.93E-01 Descent step
TIMEINFO->: J/JK contribution 105.60 sec.
   74    -342.4180555612      4.73E-01 Descent step
TIMEINFO->: J/JK contribution 105.12 sec.
   75    -342.5235266648      1.27E-01 Dog-leg BFGS step
TIMEINFO->: J/JK contribution 107.43 sec.
   76    -342.5106957611      1.95E-01 Line search: overstep
TIMEINFO->: J/JK contribution 106.45 sec.
   77    -342.5362401332      8.08E-02 Descent step
TIMEINFO->: J/JK contribution 106.31 sec.
   78    -342.5460952367      3.77E-02 Dog-leg BFGS step
TIMEINFO->: J/JK contribution 107.95 sec.
   79    -342.5023730182      2.25E-01 Line search: overstep
TIMEINFO->: J/JK contribution 106.85 sec.
   80    -342.5464685518      3.09E-02 Dog-leg BFGS step
TIMEINFO->: J/JK contribution 105.91 sec.
   81    -342.5472516245      2.51E-02 Dog-leg BFGS step
TIMEINFO->: J/JK contribution 105.30 sec.
   82    -342.5414964127      1.63E-01 Line search: overstep
TIMEINFO->: J/JK contribution 107.19 sec.
   83    -342.5477484577      3.86E-02 Descent step
TIMEINFO->: J/JK contribution 104.96 sec.
   84    -342.5485491615      7.75E-03 Dog-leg BFGS step
TIMEINFO->: J/JK contribution 105.32 sec.
   85    -342.4841368756      3.85E-01 Line search: overstep
TIMEINFO->: J/JK contribution 104.46 sec.
   86    -342.5480107948      4.73E-02 Line search: overstep
TIMEINFO->: J/JK contribution 104.28 sec.
   87    -342.5485566484      7.52E-03 Normal BFGS step
TIMEINFO->: J/JK contribution 105.43 sec.
   88    -342.5486126045      2.53E-03 Normal BFGS step
TIMEINFO->: J/JK contribution 105.27 sec.
   89    -342.5486171929      3.80E-03 Normal BFGS step
TIMEINFO->: J/JK contribution 105.55 sec.
   90    -342.5486174972      3.06E-03 Normal BFGS step
TIMEINFO->: J/JK contribution 105.04 sec.
   91    -342.5486322157      2.16E-03 Normal BFGS step
TIMEINFO->: J/JK contribution 106.03 sec.
   92    -342.5486366247      5.78E-04 Normal BFGS step
TIMEINFO->: J/JK contribution 106.36 sec.
   93    -342.5486377668      2.28E-04 Normal BFGS step
TIMEINFO->: J/JK contribution 105.31 sec.
   94    -342.5486378170      1.82E-04 Normal BFGS step
TIMEINFO->: J/JK contribution 105.17 sec.
   95    -342.5486379155      6.93E-05 Normal BFGS step
TIMEINFO->: J/JK contribution 106.08 sec.
   96    -342.5486379303      1.22E-05 Normal BFGS step
TIMEINFO->: J/JK contribution 104.06 sec.
   97    -342.5486379307      4.64E-06 Normal BFGS step
TIMEINFO->: J/JK contribution 103.45 sec.
   98    -342.5486379307      9.72E-07 Normal BFGS step
TIMEINFO->: J/JK contribution 99.71 sec.
   GDM::WARNING energy changes are now smaller than effective accuracy.
   GDM::        calculation will continue, but THRESH should be increased
   GDM::        or SCF_CONVERGENCE decreased.
   GDM::        effective_thresh =   2.683329808350621E-010
   99    -342.5486379307      2.60E-07 Normal BFGS step
TIMEINFO->: J/JK contribution 96.75 sec.
   GDM::WARNING energy changes are now smaller than effective accuracy.
   GDM::        calculation will continue, but THRESH should be increased
   GDM::        or SCF_CONVERGENCE decreased.
   GDM::        effective_thresh =   2.683329808350621E-010
  100    -342.5486379307      5.48E-08 Normal BFGS step
TIMEINFO->: J/JK contribution 93.28 sec.
  101    -342.5486379307      1.18E-08 Normal BFGS step
TIMEINFO->: J/JK contribution 89.36 sec.
  102    -342.5486379307      4.55E-09 Convergence criterion met
 ---------------------------------------
 B3LYP orbitals are now ready for the XYGJ-OS calculation.
 XYGJ-OS energy = Exch (0.7731 HF  + 0.2269 Slater) + 
                  Corr (0.2754 LYP + 0.2309 VWN1RPA + 0.4364 OS-MP2)
 SCF time:  CPU 12294.37 s  wall 1552.93 s
 SCF   energy in the final basis set = -341.98944858
 Total energy in the final basis set = -341.98944858
 Entering Scaled Opposite Spin MP2
 NBasAux in rimp2.F =          354

 OS-MP2 job begins now...

 SOS scaling factor =  0.4
 Form (P|Q)**(-1/2)...
 
 Form (ia|P)...
 Form BiaQ = (ia|P)*(P|Q)**(-1/2)...
 Form (ia|P)...
 Form BiaQ = (ia|P)*(P|Q)**(-1/2)...
 Laplace quadrature loop begins
 Laplace point 1: correlation energy     =        -0.1859190414
 Laplace point 2: correlation energy     =        -0.1249630667
 Laplace point 3: correlation energy     =        -0.0704169111
 Laplace point 4: correlation energy     =        -0.0573956876
 Laplace point 5: correlation energy     =        -0.0262327824
 Laplace point 6: correlation energy     =        -0.0034754527
 Laplace point 7: correlation energy     =        -0.0000562871
 
 singles contribution not yet available for XYGJ-OS 
 Total OS-MP2 correlation energy         =        -0.4684592290

 Total XYGJ-OS energy                    =      -342.1951150962
 
 ------------------------------------------------------------------------------
                     SOSMP2        : Timing summary (seconds)
 ------------------------------------------------------------------------------
     job step          cpu (% of tot)      sys (% of tot)     wall (% of tot)
 ------------------------------------------------------------------------------
  Form inv (P|Q)    0.9169E+00 ( 2.2)   0.4000E-05 ( 2.3)   0.1151E+00 ( 2.0)
  Form (ia|P)       0.3617E+02 (88.4)   0.1490E-03 (86.6)   0.4535E+01 (80.4)
  Form  BiaQ        0.1205E+01 ( 2.9)   0.5000E-05 ( 2.9)   0.1511E+00 ( 2.7)
  LP orbitals       0.3371E+00 ( 0.8)   0.5000E-05 ( 2.9)   0.1293E+00 ( 2.3)
  Form  X(PQ)       0.1550E+01 ( 3.8)   0.4000E-05 ( 2.3)   0.5592E+00 ( 9.9)
  Increment EMP2    0.1633E+00 ( 0.4)   0.1000E-05 ( 0.6)   0.6968E-01 ( 1.2)
 ------------------------------------------------------------------------------
   Grand Totals     0.4093E+02          0.1720E-03          0.5637E+01
 ------------------------------------------------------------------------------
 
 --------------------------------------------------------------
 
                    Orbital Energies (a.u.)
 --------------------------------------------------------------
 
 Alpha MOs
 -- Occupied --
-77.070  -6.563  -4.722  -4.729  -4.719  -0.638  -0.392  -0.317
 -0.251
 -- Virtual --
 -0.015   0.004   0.022   0.031   0.036   0.052   0.076   0.077
  0.081   0.084   0.087   0.149   0.175   0.181   0.189   0.205
  0.204   0.206   0.223   0.268   0.274   0.298   0.304   0.309
  0.305   0.308   0.333   0.397   0.408   0.427   0.441   0.442
  0.449   0.451   0.537   0.554   0.582   0.611   0.619   0.627
  0.649   0.671   0.673   0.695   0.745   0.771   0.807   0.897
  0.913   0.922   0.929   0.965   0.996   1.006   1.007   1.012
  1.057   1.062   1.080   1.088   1.159   1.199   1.204   1.209
  1.234   1.242   1.251   1.297   1.298   1.356   1.423   1.496
  1.498   1.511   1.562   1.564   1.565   1.628   1.656   1.710
  1.759   1.811   1.868   1.904   1.923   1.925   1.939   1.989
  1.999   2.061   2.070   2.079   2.163   2.235   2.375   2.449
  2.466   2.466   2.495   2.565   2.601   2.642   2.650   2.698
  2.749   2.762   2.867   2.875   2.886   2.908   2.979   2.982
  3.059   3.079   3.104   3.148   3.208   3.235   3.266   3.302
  3.341   3.396   3.408   3.696   3.697   3.733   3.912   3.966
  4.050   4.152   4.224   4.573   5.185   5.407   6.317   6.325
  6.368   6.384   6.429   6.557   6.578   6.636   6.670   6.719
  6.807   6.865   6.969   7.119   7.191   7.655   7.663   8.063
  8.082   8.120   8.152   8.198   8.310   8.358   8.377   8.389
  8.427   8.514   8.749   8.888   8.893   8.909   9.025   9.040
  9.299   9.400   9.981  10.290  13.773  14.333  14.426  15.712
 15.801  15.831  15.845  15.939  16.281  16.305  23.116  26.564
 26.568  26.684  26.884  27.296  39.271  39.781  39.861  45.991
 45.992  45.994  45.995  45.997  45.997  45.998  46.005  46.006
 56.079  56.114  56.124  56.137  56.189  56.330  56.336  67.750
 78.996  78.999  79.084  79.194  79.509 123.929 124.333 124.398
324.918
 
 Beta MOs
 -- Occupied --
-77.066  -6.559  -4.720  -4.715  -4.717  -0.610  -0.384  -0.301
 -- Virtual --
 -0.130  -0.013   0.008   0.022   0.032   0.041   0.063   0.080
  0.078   0.087   0.093   0.095   0.149   0.179   0.182   0.189
  0.205   0.209   0.211   0.223   0.287   0.278   0.319   0.308
  0.313   0.325   0.326   0.336   0.403   0.411   0.428   0.443
  0.450   0.451   0.455   0.545   0.558   0.582   0.616   0.623
  0.631   0.653   0.673   0.677   0.697   0.750   0.774   0.806
  0.922   0.916   0.942   0.949   0.971   1.017   1.008   1.020
  1.016   1.074   1.087   1.121   1.114   1.167   1.210   1.219
  1.224   1.239   1.253   1.258   1.307   1.310   1.361   1.427
  1.501   1.502   1.522   1.573   1.569   1.569   1.635   1.658
  1.712   1.765   1.812   1.872   1.906   1.925   1.927   1.949
  2.004   2.008   2.063   2.074   2.084   2.169   2.254   2.382
  2.455   2.470   2.478   2.504   2.577   2.605   2.663   2.667
  2.721   2.770   2.785   2.877   2.890   2.918   2.927   2.984
  2.999   3.065   3.086   3.130   3.171   3.236   3.263   3.289
  3.317   3.357   3.409   3.412   3.701   3.702   3.757   3.918
  3.971   4.067   4.155   4.227   4.595   5.191   5.411   6.319
  6.326   6.369   6.385   6.430   6.559   6.581   6.640   6.673
  6.722   6.812   6.871   6.976   7.119   7.203   7.656   7.664
  8.068   8.087   8.120   8.153   8.200   8.315   8.369   8.378
  8.398   8.428   8.515   8.757   8.891   8.894   8.913   9.026
  9.040   9.301   9.402   9.984  10.293  13.792  14.337  14.430
 15.714  15.804  15.834  15.849  15.942  16.283  16.307  23.121
 26.573  26.577  26.685  26.896  27.298  39.285  39.784  39.864
 45.994  45.994  45.997  45.998  45.999  45.999  46.000  46.005
 46.006  56.084  56.122  56.132  56.146  56.195  56.332  56.338
 67.756  79.006  79.009  79.085  79.207  79.510 123.939 124.335
124.400 324.921
 --------------------------------------------------------------
 
          Ground-State Mulliken Net Atomic Charges

     Atom                 Charge (a.u.)
  ----------------------------------------
      1 P                    -0.085495
      2 H                     0.042747
      3 H                     0.042747
  ----------------------------------------
  Sum of atomic charges =    -0.000000

 -----------------------------------------------------------------
                    Cartesian Multipole Moments
 -----------------------------------------------------------------
    Charge (ESU x 10^10)
                -0.0000
    Dipole Moment (Debye)
         X       0.0000      Y      -0.0000      Z       0.5011
       Tot       0.5011
    Quadrupole Moments (Debye-Ang)
        XX     -15.2649     XY      -0.0000     YY     -14.1330
        XZ      -0.0000     YZ      -0.0000     ZZ     -15.4757
    Octopole Moments (Debye-Ang^2)
       XXX       0.0000    XXY       0.0000    XYY       0.0000
       YYY      -0.0000    XXZ      -1.5358    XYZ       0.0000
       YYZ      -1.5673    XZZ       0.0000    YZZ      -0.0000
       ZZZ      -4.8590
    Hexadecapole Moments (Debye-Ang^3)
      XXXX     -24.4293   XXXY      -0.0000   XXYY      -9.5437
      XYYY      -0.0000   YYYY     -31.4388   XXXZ      -0.0000
      XXYZ      -0.0000   XYYZ      -0.0000   YYYZ      -0.0000
      XXZZ     -10.1982   XYZZ      -0.0000   YYZZ     -10.5237
      XZZZ      -0.0000   YZZZ      -0.0000   ZZZZ     -36.0154
 -----------------------------------------------------------------
Archival summary:
1\1\n0094.mhg0\SP\ROProcedureUnspecified\BasisUnspecified\12(2)\yhljason\WedOct2103:55:362020WedOct2103:55:362020\0\\#,ROProcedureUnspecified,BasisUnspecified,\\0,2\P\H,1,1.42798\H,1,1.42798,2,91.5037\\\@

 Total job time:  1559.65s(wall), 12341.81s(cpu) 
 Wed Oct 21 03:55:36 2020

        *************************************************************
        *                                                           *
        *  Thank you very much for using Q-Chem.  Have a nice day.  *
        *                                                           *
        *************************************************************


 
User input: 2 of 7 
 
Q-Chem Developer Version!
                  Welcome to Q-Chem
     A Quantum Leap Into The Future Of Chemistry


 Q-Chem 5.1, Q-Chem, Inc., Pleasanton, CA (2018)

 Yihan Shao,  Zhengting Gan,  E. Epifanovsky,  A. T. B. Gilbert,  M. Wormit,  
 J. Kussmann,  A. W. Lange,  A. Behn,  Jia Deng,  Xintian Feng,  D. Ghosh,  
 M. Goldey,  P. R. Horn,  L. D. Jacobson,  I. Kaliman,  T. Kus,  A. Landau,  
 Jie Liu,  E. I. Proynov,  R. M. Richard,  R. P. Steele,  E. J. Sundstrom,  
 H. L. Woodcock III,  P. M. Zimmerman,  D. Zuev,  B. Albrecht,  E. Alguire,  
 S. A. Baeppler,  D. Barton,  Z. Benda,  Y. A. Bernard,  E. J. Berquist,  
 K. B. Bravaya,  H. Burton,  D. Casanova,  Chun-Min Chang,  Yunqing Chen,  
 A. Chien,  K. D. Closser,  M. P. Coons,  S. Coriani,  S. Dasgupta,  
 A. L. Dempwolff,  M. Diedenhofen,  Hainam Do,  R. G. Edgar,  Po-Tung Fang,  
 S. Faraji,  S. Fatehi,  Qingguo Feng,  K. D. Fenk,  J. Fosso-Tande,  
 Qinghui Ge,  A. Ghysels,  G. Gidofalvi,  J. Gomes,  J. Gonthier,  A. Gunina,  
 D. Hait,  M. W. D. Hanson-Heine,  P. H. P. Harbach,  A. W. Hauser,  
 J. E. Herr,  E. G. Hohenstein,  Z. C. Holden,  Kerwin Hui,  B. C. Huynh,  
 T.-C. Jagau,  Hyunjun Ji,  B. Kaduk,  K. Khistyaev,  Jaehoon Kim,  
 P. Klunzinger,  K. Koh,  D. Kosenkov,  L. Koulias,  T. Kowalczyk,  
 C. M. Krauter,  A. Kunitsa,  Ka Un Lao,  A. Laurent,  K. V. Lawler,  
 Joonho Lee,  D. Lefrancois,  S. Lehtola,  D. S. Levine,  Yi-Pei Li,  
 You-Sheng Lin,  Fenglai Liu,  E. Livshits,  A. Luenser,  P. Manohar,  
 E. Mansoor,  S. F. Manzer,  Shan-Ping Mao,  Yuezhi Mao,  N. Mardirossian,  
 A. V. Marenich,  T. Markovich,  L. A. Martinez-Martinez,  S. A. Maurer,  
 N. J. Mayhall,  S. C. McKenzie,  J.-M. Mewes,  A. F. Morrison,  
 J. W. Mullinax,  K. Nanda,  T. S. Nguyen-Beck,  R. Olivares-Amaya,  
 J. A. Parkhill,  T. M. Perrine,  F. Plasser,  P. Pokhilko,  S. Prager,  
 A. Prociuk,  E. Ramos,  D. R. Rehn,  F. Rob,  M. Schneider,  N. Sergueev,  
 S. M. Sharada,  S. Sharma,  D. W. Small,  T. Stauch,  T. Stein,  
 Yu-Chuan Su,  A. J. W. Thom,  A. Tkatchenko,  T. Tsuchimochi,  N. M. Tubman,  
 L. Vogt,  M. L. Vidal,  O. Vydrov,  M. A. Watson,  J. Wenzel,  
 M. de Wergifosse,  T. A. Wesolowski,  A. White,  J. Witte,  A. Yamada,  
 Jun Yang,  K. Yao,  S. Yeganeh,  S. R. Yost,  Zhi-Qiang You,  A. Zech,  
 Igor Ying Zhang,  Xing Zhang,  Yan Zhao,  Ying Zhu,  B. R. Brooks,  
 G. K. L. Chan,  C. J. Cramer,  M. S. Gordon,  W. J. Hehre,  A. Klamt,  
 M. W. Schmidt,  C. D. Sherrill,  D. G. Truhlar,  A. Aspuru-Guzik,  R. Baer,  
 A. T. Bell,  N. A. Besley,  Jeng-Da Chai,  A. E. DePrince, III,  
 R. A. DiStasio Jr.,  A. Dreuw,  B. D. Dunietz,  T. R. Furlani,  
 Chao-Ping Hsu,  Yousung Jung,  Jing Kong,  D. S. Lambrecht,  WanZhen Liang,  
 C. Ochsenfeld,  V. A. Rassolov,  L. V. Slipchenko,  J. E. Subotnik,  
 T. Van Voorhis,  J. M. Herbert,  A. I. Krylov,  P. M. W. Gill,  M. Head-Gordon

 Contributors to earlier versions of Q-Chem not listed above: 
 R. D. Adamson,  B. Austin,  J. Baker,  G. J. O. Beran,  K. Brandhorst,  
 S. T. Brown,  E. F. C. Byrd,  A. K. Chakraborty,  C.-L. Cheng,  
 Siu Hung Chien,  D. M. Chipman,  D. L. Crittenden,  H. Dachsel,  
 R. J. Doerksen,  A. D. Dutoi,  L. Fusti-Molnar,  W. A. Goddard III,  
 A. Golubeva-Zadorozhnaya,  S. R. Gwaltney,  G. Hawkins,  A. Heyden,  
 S. Hirata,  G. Kedziora,  F. J. Keil,  C. Kelley,  Jihan Kim,  R. A. King,  
 R. Z. Khaliullin,  P. P. Korambath,  W. Kurlancheek,  A. M. Lee,  M. S. Lee,  
 S. V. Levchenko,  Ching Yeh Lin,  D. Liotard,  R. C. Lochan,  I. Lotan,  
 P. E. Maslen,  N. Nair,  D. P. O'Neill,  D. Neuhauser,  E. Neuscamman,  
 C. M. Oana,  R. Olson,  B. Peters,  R. Peverati,  P. A. Pieniazek,  
 Y. M. Rhee,  J. Ritchie,  M. A. Rohrdanz,  E. Rosta,  N. J. Russ,  
 H. F. Schaefer III,  N. E. Schultz,  N. Shenvi,  A. C. Simmonett,  A. Sodt,  
 D. Stuck,  K. S. Thanthiriwatte,  V. Vanovschi,  Tao Wang,  A. Warshel,  
 C. F. Williams,  Q. Wu,  X. Xu,  W. Zhang

 Please cite Q-Chem as follows:
 Y. Shao et al., Mol. Phys. 113, 184-215 (2015)
 DOI: 10.1080/00268976.2014.952696

 Q-Chem 5.1.1 for Intel X86 EM64T Linux

 Parts of Q-Chem use Armadillo 8.300.2 (Tropical Shenanigans).
 http://arma.sourceforge.net/

 Q-Chem begins on Wed Oct 21 03:55:36 2020  

Host: n0094.mhg0
0

     Scratch files written to /local/scratch/users/yhljason/PH2_XYGJOS_aug-cc-pcVQZ.inp20201021032932//
The previous job contains 0 fragments, simply inherited here
Input Ideriv = 1
Curr. Ideriv = -1
Max.  Ideriv = 1

Checking the input file for inconsistencies... 	...done.

--------------------------------------------------------------
User input:
--------------------------------------------------------------
$molecule
read
$end

$rem

jobtype sp
exchange XYGJOS
xc_grid 000099000590
basis aug-cc-pcVQZ
aux_basis rimp2-aug-cc-pVQZ
max_scf_cycles 200
thresh 14
scf_convergence 8
mem_total 128000
cc_memory 96000
cc_backend xm
mem_static 1500
symmetry false
sym_ignore true
scf_guess read
unrestricted false
scf_algorithm gdm
n_frozen_core 0
$end

$multipole_field
XX 0.0001
$end


--------------------------------------------------------------
 ----------------------------------------------------------------
             Standard Nuclear Orientation (Angstroms)
    I     Atom           X                Y                Z
 ----------------------------------------------------------------
    1      P       0.0000000000     0.0000000000     0.0000000000
    2      H       0.0000000000     1.0229000000     0.9964000000
    3      H       0.0000000000    -1.0229000000     0.9964000000
 ----------------------------------------------------------------
 Nuclear Repulsion Energy =    11.3759605773 hartrees
 There are        9 alpha and        8 beta electrons
 Requested basis set is aug-cc-pCVQZ
 There are 62 shells and 226 basis functions

 Total QAlloc Memory Limit 128000 MB
 Mega-Array Size      1467 MB
 MEM_STATIC part      1500 MB

                       Distance Matrix (Angstroms)
             P (  1)   H (  2)
   H (  2)  1.427984
   H (  3)  1.427984  2.045800
 
 Applying Cartesian multipole field
    Component          Value
    ---------          -----
     (2,0,0)        1.00000E-04
 Requested basis set is rimp2-aug-cc-pVQZ
 There are 84 shells and 354 basis functions
 A cutoff of  1.0D-14 yielded   1953 shell pairs
 There are     26129 function pairs (     41436 Cartesian)
 
 -------------------------------------------------------
 OpenMP Integral Computing Module                       
 Release: version 1.0, May 2013, Q-Chem Inc. Pittsburgh 
 -------------------------------------------------------
 Integral Job Info:
 Integral job number is                      11
 Integral operator is                         1
 short-range coefficients                     0
 long-range coefficients              100000000
 Omega coefficients                           0
 if combine SR and LR in K                    0
 Integral screening is                        0
 Integral computing path is                   2
 max size of driver memory is           3200000
 size of driver memory is               1704330
 size of scratch memory is             29435624
 max col of scratch BK array              50625
 max len of scratch array in speh3         2114
 max len of scratch index in speh4           50
 max int batch size is                      520
 min int batch size is                       52
 fixed nKL is                                22
 max L of basis functions is                  4
 order of int derivative is                   0
 number of shells is                         62
 number of basis is                         284
 number of cartesian basis is               284
 number of contracted shell pairs          1953
 number of primitive shell pairs           6866
 maxK2 (contraction) of shell pair          169
 max number of K2 of shell pair               1
 max number of CS2 of shell pair            227
 max number of PS2 of shell pair           1014
 mem total for path MDJ                  662152
 -------------------------------------------------------
 Smallest overlap matrix eigenvalue = 3.01E-05
 Guess MOs from SCF MO coefficient file
 Reading MOs from coefficient file
 Reading MOs from coefficient file
 A restricted hybrid HF-DFT SCF calculation will be
 performed using Geometric Direct Minimization
 Exchange:     0.2000 Hartree-Fock + 0.0800 Slater + 0.7200 B88
 Correlation:  0.1900 VWN1RPA + 0.8100 LYP
 Using Euler-Maclaurin-Lebedev (99,590) quadrature formula
 SCF converges when RMS gradient is below 1.0E-08
Using Q-Chem read-in guess as SCF_GUESS READ specified.

 using 8 threads for integral computing
 -------------------------------------------------------
 OpenMP Integral computing Module                
 Release: version 2.0, May 2017, Q-Chem Inc. Pleasanton 
 -------------------------------------------------------
TIMEINFO->: J/JK contribution 105.89 sec.
 -------------------------------------------------------
 OpenMP BLAS3 based DFT computing Module                
 Release: version 1.0, May 2013, Q-Chem Inc. Pittsburgh 
 -------------------------------------------------------
 ---------------------------------------
  Cycle       Energy        RMS Gradient
 ---------------------------------------
    1    -342.5497728358      1.06E-03 Normal BFGS step
TIMEINFO->: J/JK contribution 105.78 sec.
    2    -342.5497734613      6.99E-04 Normal BFGS step
TIMEINFO->: J/JK contribution 104.92 sec.
    3    -342.5497736765      8.09E-05 Normal BFGS step
TIMEINFO->: J/JK contribution 105.14 sec.
    4    -342.5497736872      4.21E-05 Normal BFGS step
TIMEINFO->: J/JK contribution 104.66 sec.
    5    -342.5497736901      9.29E-06 Normal BFGS step
TIMEINFO->: J/JK contribution 103.80 sec.
    6    -342.5497736902      3.56E-06 Normal BFGS step
TIMEINFO->: J/JK contribution 102.05 sec.
    7    -342.5497736902      8.37E-07 Normal BFGS step
TIMEINFO->: J/JK contribution 100.98 sec.
    8    -342.5497736902      2.17E-07 Normal BFGS step
TIMEINFO->: J/JK contribution 96.80 sec.
    9    -342.5497736902      4.84E-09 Convergence criterion met
 ---------------------------------------
 B3LYP orbitals are now ready for the XYGJ-OS calculation.
 XYGJ-OS energy = Exch (0.7731 HF  + 0.2269 Slater) + 
                  Corr (0.2754 LYP + 0.2309 VWN1RPA + 0.4364 OS-MP2)
 SCF time:  CPU 1085.24 s  wall 137.15 s
 SCF   energy in the final basis set = -341.99058413
 Total energy in the final basis set = -341.99058413
 Entering Scaled Opposite Spin MP2
 NBasAux in rimp2.F =          354

 OS-MP2 job begins now...

 SOS scaling factor =  0.4
 Form (P|Q)**(-1/2)...
 
 Form (ia|P)...
 Form BiaQ = (ia|P)*(P|Q)**(-1/2)...
 Form (ia|P)...
 Form BiaQ = (ia|P)*(P|Q)**(-1/2)...
 Laplace quadrature loop begins
 Laplace point 1: correlation energy     =        -0.1859157910
 Laplace point 2: correlation energy     =        -0.1249573674
 Laplace point 3: correlation energy     =        -0.0704115229
 Laplace point 4: correlation energy     =        -0.0573979422
 Laplace point 5: correlation energy     =        -0.0262403385
 Laplace point 6: correlation energy     =        -0.0034783276
 Laplace point 7: correlation energy     =        -0.0000564558
 
 singles contribution not yet available for XYGJ-OS 
 Total OS-MP2 correlation energy         =        -0.4684577454

 Total XYGJ-OS energy                    =      -342.1962485384
 
 ------------------------------------------------------------------------------
                     SOSMP2        : Timing summary (seconds)
 ------------------------------------------------------------------------------
     job step          cpu (% of tot)      sys (% of tot)     wall (% of tot)
 ------------------------------------------------------------------------------
  Form inv (P|Q)    0.9033E+00 ( 2.2)   0.5000E-05 ( 3.0)   0.1134E+00 ( 2.0)
  Form (ia|P)       0.3592E+02 (88.8)   0.1530E-03 (90.5)   0.4502E+01 (81.0)
  Form  BiaQ        0.1123E+01 ( 2.8)   0.7000E-05 ( 4.1)   0.1407E+00 ( 2.5)
  LP orbitals       0.3141E+00 ( 0.8)   0.1000E-05 ( 0.6)   0.1240E+00 ( 2.2)
  Form  X(PQ)       0.1471E+01 ( 3.6)   0.0000E+00 ( 0.0)   0.5379E+00 ( 9.7)
  Increment EMP2    0.1537E+00 ( 0.4)   0.0000E+00 ( 0.0)   0.6430E-01 ( 1.2)
 ------------------------------------------------------------------------------
   Grand Totals     0.4046E+02          0.1690E-03          0.5558E+01
 ------------------------------------------------------------------------------
 
 --------------------------------------------------------------
 
                    Orbital Energies (a.u.)
 --------------------------------------------------------------
 
 Alpha MOs
 -- Occupied --
-77.071  -6.563  -4.722  -4.730  -4.720  -0.638  -0.392  -0.317
 -0.251
 -- Virtual --
 -0.017   0.003   0.021   0.030   0.032   0.050   0.074   0.075
  0.080   0.083   0.085   0.148   0.174   0.180   0.188   0.203
  0.202   0.205   0.222   0.266   0.273   0.297   0.303   0.308
  0.304   0.306   0.332   0.396   0.407   0.427   0.441   0.441
  0.448   0.450   0.537   0.553   0.582   0.611   0.618   0.626
  0.648   0.670   0.672   0.694   0.745   0.770   0.807   0.896
  0.913   0.922   0.928   0.964   0.996   1.006   1.006   1.012
  1.056   1.061   1.079   1.087   1.159   1.198   1.203   1.208
  1.234   1.242   1.250   1.297   1.298   1.355   1.423   1.495
  1.498   1.510   1.561   1.564   1.565   1.627   1.655   1.710
  1.758   1.811   1.868   1.903   1.923   1.925   1.939   1.989
  1.998   2.060   2.070   2.079   2.163   2.234   2.375   2.449
  2.465   2.466   2.494   2.564   2.600   2.642   2.650   2.698
  2.748   2.761   2.866   2.875   2.886   2.907   2.978   2.982
  3.058   3.079   3.103   3.148   3.208   3.235   3.266   3.301
  3.341   3.396   3.408   3.696   3.696   3.733   3.912   3.966
  4.049   4.151   4.223   4.572   5.185   5.406   6.317   6.324
  6.368   6.383   6.429   6.557   6.578   6.636   6.669   6.719
  6.806   6.865   6.969   7.118   7.191   7.655   7.663   8.063
  8.082   8.120   8.152   8.198   8.310   8.358   8.377   8.389
  8.427   8.513   8.748   8.887   8.892   8.909   9.025   9.040
  9.299   9.400   9.981  10.290  13.773  14.333  14.425  15.712
 15.801  15.831  15.845  15.939  16.281  16.305  23.115  26.564
 26.567  26.683  26.884  27.296  39.271  39.780  39.861  45.991
 45.991  45.994  45.994  45.997  45.997  45.998  46.005  46.005
 56.078  56.114  56.124  56.136  56.189  56.330  56.335  67.750
 78.995  78.999  79.083  79.193  79.508 123.929 124.333 124.397
324.917
 
 Beta MOs
 -- Occupied --
-77.067  -6.559  -4.720  -4.715  -4.717  -0.610  -0.384  -0.302
 -- Virtual --
 -0.130  -0.014   0.008   0.020   0.030   0.037   0.062   0.079
  0.077   0.085   0.092   0.093   0.148   0.178   0.181   0.188
  0.204   0.207   0.210   0.222   0.285   0.278   0.318   0.307
  0.312   0.324   0.324   0.335   0.402   0.410   0.428   0.442
  0.449   0.450   0.454   0.544   0.558   0.582   0.615   0.622
  0.630   0.653   0.673   0.676   0.697   0.750   0.773   0.806
  0.921   0.916   0.941   0.948   0.970   1.016   1.007   1.019
  1.015   1.073   1.086   1.120   1.113   1.167   1.209   1.219
  1.224   1.239   1.252   1.258   1.307   1.309   1.361   1.426
  1.501   1.502   1.521   1.572   1.568   1.569   1.634   1.657
  1.712   1.765   1.812   1.872   1.905   1.925   1.927   1.949
  2.003   2.007   2.063   2.073   2.084   2.169   2.253   2.381
  2.455   2.469   2.478   2.504   2.577   2.605   2.663   2.667
  2.721   2.769   2.785   2.876   2.889   2.918   2.927   2.984
  2.999   3.065   3.086   3.129   3.171   3.236   3.262   3.289
  3.317   3.357   3.409   3.412   3.701   3.702   3.756   3.917
  3.971   4.066   4.155   4.227   4.595   5.191   5.410   6.319
  6.326   6.369   6.385   6.430   6.559   6.581   6.640   6.673
  6.722   6.812   6.871   6.975   7.119   7.203   7.656   7.664
  8.068   8.087   8.120   8.153   8.199   8.314   8.369   8.378
  8.397   8.428   8.515   8.757   8.891   8.894   8.912   9.026
  9.040   9.300   9.402   9.984  10.293  13.791  14.336  14.429
 15.713  15.803  15.833  15.849  15.941  16.283  16.306  23.121
 26.573  26.577  26.685  26.896  27.297  39.284  39.783  39.864
 45.994  45.994  45.997  45.997  45.999  45.999  46.000  46.005
 46.006  56.084  56.121  56.131  56.146  56.195  56.332  56.337
 67.756  79.005  79.009  79.085  79.207  79.510 123.938 124.335
124.399 324.921
 --------------------------------------------------------------
 
          Ground-State Mulliken Net Atomic Charges

     Atom                 Charge (a.u.)
  ----------------------------------------
      1 P                    -0.090701
      2 H                     0.045350
      3 H                     0.045350
  ----------------------------------------
  Sum of atomic charges =    -0.000000

 -----------------------------------------------------------------
                    Cartesian Multipole Moments
 -----------------------------------------------------------------
    Charge (ESU x 10^10)
                -0.0000
    Dipole Moment (Debye)
         X      -0.0000      Y      -0.0000      Z       0.5021
       Tot       0.5021
    Quadrupole Moments (Debye-Ang)
        XX     -15.2879     XY       0.0000     YY     -14.1343
        XZ      -0.0000     YZ      -0.0000     ZZ     -15.4772
    Octopole Moments (Debye-Ang^2)
       XXX      -0.0000    XXY      -0.0000    XYY      -0.0000
       YYY      -0.0000    XXZ      -1.5355    XYZ       0.0000
       YYZ      -1.5649    XZZ      -0.0000    YZZ      -0.0000
       ZZZ      -4.8575
    Hexadecapole Moments (Debye-Ang^3)
      XXXX     -24.5763   XXXY       0.0000   XXYY      -9.5691
      XYYY       0.0000   YYYY     -31.4508   XXXZ      -0.0000
      XXYZ       0.0000   XYYZ      -0.0000   YYYZ      -0.0000
      XXZZ     -10.2259   XYZZ       0.0000   YYZZ     -10.5266
      XZZZ      -0.0000   YZZZ      -0.0000   ZZZZ     -36.0319
 -----------------------------------------------------------------
Archival summary:
1\1\n0094.mhg0\SP\ROProcedureUnspecified\BasisUnspecified\12(2)\yhljason\WedOct2103:58:002020WedOct2103:58:002020\0\\#,ROProcedureUnspecified,BasisUnspecified,\\0,2\P\H,1,1.42798\H,1,1.42798,2,91.5037\\\@

 Total job time:  143.89s(wall), 1132.46s(cpu) 
 Wed Oct 21 03:58:00 2020

        *************************************************************
        *                                                           *
        *  Thank you very much for using Q-Chem.  Have a nice day.  *
        *                                                           *
        *************************************************************


 
User input: 3 of 7 
 
Q-Chem Developer Version!
                  Welcome to Q-Chem
     A Quantum Leap Into The Future Of Chemistry


 Q-Chem 5.1, Q-Chem, Inc., Pleasanton, CA (2018)

 Yihan Shao,  Zhengting Gan,  E. Epifanovsky,  A. T. B. Gilbert,  M. Wormit,  
 J. Kussmann,  A. W. Lange,  A. Behn,  Jia Deng,  Xintian Feng,  D. Ghosh,  
 M. Goldey,  P. R. Horn,  L. D. Jacobson,  I. Kaliman,  T. Kus,  A. Landau,  
 Jie Liu,  E. I. Proynov,  R. M. Richard,  R. P. Steele,  E. J. Sundstrom,  
 H. L. Woodcock III,  P. M. Zimmerman,  D. Zuev,  B. Albrecht,  E. Alguire,  
 S. A. Baeppler,  D. Barton,  Z. Benda,  Y. A. Bernard,  E. J. Berquist,  
 K. B. Bravaya,  H. Burton,  D. Casanova,  Chun-Min Chang,  Yunqing Chen,  
 A. Chien,  K. D. Closser,  M. P. Coons,  S. Coriani,  S. Dasgupta,  
 A. L. Dempwolff,  M. Diedenhofen,  Hainam Do,  R. G. Edgar,  Po-Tung Fang,  
 S. Faraji,  S. Fatehi,  Qingguo Feng,  K. D. Fenk,  J. Fosso-Tande,  
 Qinghui Ge,  A. Ghysels,  G. Gidofalvi,  J. Gomes,  J. Gonthier,  A. Gunina,  
 D. Hait,  M. W. D. Hanson-Heine,  P. H. P. Harbach,  A. W. Hauser,  
 J. E. Herr,  E. G. Hohenstein,  Z. C. Holden,  Kerwin Hui,  B. C. Huynh,  
 T.-C. Jagau,  Hyunjun Ji,  B. Kaduk,  K. Khistyaev,  Jaehoon Kim,  
 P. Klunzinger,  K. Koh,  D. Kosenkov,  L. Koulias,  T. Kowalczyk,  
 C. M. Krauter,  A. Kunitsa,  Ka Un Lao,  A. Laurent,  K. V. Lawler,  
 Joonho Lee,  D. Lefrancois,  S. Lehtola,  D. S. Levine,  Yi-Pei Li,  
 You-Sheng Lin,  Fenglai Liu,  E. Livshits,  A. Luenser,  P. Manohar,  
 E. Mansoor,  S. F. Manzer,  Shan-Ping Mao,  Yuezhi Mao,  N. Mardirossian,  
 A. V. Marenich,  T. Markovich,  L. A. Martinez-Martinez,  S. A. Maurer,  
 N. J. Mayhall,  S. C. McKenzie,  J.-M. Mewes,  A. F. Morrison,  
 J. W. Mullinax,  K. Nanda,  T. S. Nguyen-Beck,  R. Olivares-Amaya,  
 J. A. Parkhill,  T. M. Perrine,  F. Plasser,  P. Pokhilko,  S. Prager,  
 A. Prociuk,  E. Ramos,  D. R. Rehn,  F. Rob,  M. Schneider,  N. Sergueev,  
 S. M. Sharada,  S. Sharma,  D. W. Small,  T. Stauch,  T. Stein,  
 Yu-Chuan Su,  A. J. W. Thom,  A. Tkatchenko,  T. Tsuchimochi,  N. M. Tubman,  
 L. Vogt,  M. L. Vidal,  O. Vydrov,  M. A. Watson,  J. Wenzel,  
 M. de Wergifosse,  T. A. Wesolowski,  A. White,  J. Witte,  A. Yamada,  
 Jun Yang,  K. Yao,  S. Yeganeh,  S. R. Yost,  Zhi-Qiang You,  A. Zech,  
 Igor Ying Zhang,  Xing Zhang,  Yan Zhao,  Ying Zhu,  B. R. Brooks,  
 G. K. L. Chan,  C. J. Cramer,  M. S. Gordon,  W. J. Hehre,  A. Klamt,  
 M. W. Schmidt,  C. D. Sherrill,  D. G. Truhlar,  A. Aspuru-Guzik,  R. Baer,  
 A. T. Bell,  N. A. Besley,  Jeng-Da Chai,  A. E. DePrince, III,  
 R. A. DiStasio Jr.,  A. Dreuw,  B. D. Dunietz,  T. R. Furlani,  
 Chao-Ping Hsu,  Yousung Jung,  Jing Kong,  D. S. Lambrecht,  WanZhen Liang,  
 C. Ochsenfeld,  V. A. Rassolov,  L. V. Slipchenko,  J. E. Subotnik,  
 T. Van Voorhis,  J. M. Herbert,  A. I. Krylov,  P. M. W. Gill,  M. Head-Gordon

 Contributors to earlier versions of Q-Chem not listed above: 
 R. D. Adamson,  B. Austin,  J. Baker,  G. J. O. Beran,  K. Brandhorst,  
 S. T. Brown,  E. F. C. Byrd,  A. K. Chakraborty,  C.-L. Cheng,  
 Siu Hung Chien,  D. M. Chipman,  D. L. Crittenden,  H. Dachsel,  
 R. J. Doerksen,  A. D. Dutoi,  L. Fusti-Molnar,  W. A. Goddard III,  
 A. Golubeva-Zadorozhnaya,  S. R. Gwaltney,  G. Hawkins,  A. Heyden,  
 S. Hirata,  G. Kedziora,  F. J. Keil,  C. Kelley,  Jihan Kim,  R. A. King,  
 R. Z. Khaliullin,  P. P. Korambath,  W. Kurlancheek,  A. M. Lee,  M. S. Lee,  
 S. V. Levchenko,  Ching Yeh Lin,  D. Liotard,  R. C. Lochan,  I. Lotan,  
 P. E. Maslen,  N. Nair,  D. P. O'Neill,  D. Neuhauser,  E. Neuscamman,  
 C. M. Oana,  R. Olson,  B. Peters,  R. Peverati,  P. A. Pieniazek,  
 Y. M. Rhee,  J. Ritchie,  M. A. Rohrdanz,  E. Rosta,  N. J. Russ,  
 H. F. Schaefer III,  N. E. Schultz,  N. Shenvi,  A. C. Simmonett,  A. Sodt,  
 D. Stuck,  K. S. Thanthiriwatte,  V. Vanovschi,  Tao Wang,  A. Warshel,  
 C. F. Williams,  Q. Wu,  X. Xu,  W. Zhang

 Please cite Q-Chem as follows:
 Y. Shao et al., Mol. Phys. 113, 184-215 (2015)
 DOI: 10.1080/00268976.2014.952696

 Q-Chem 5.1.1 for Intel X86 EM64T Linux

 Parts of Q-Chem use Armadillo 8.300.2 (Tropical Shenanigans).
 http://arma.sourceforge.net/

 Q-Chem begins on Wed Oct 21 03:58:00 2020  

Host: n0094.mhg0
0

     Scratch files written to /local/scratch/users/yhljason/PH2_XYGJOS_aug-cc-pcVQZ.inp20201021032932//
The previous job contains 0 fragments, simply inherited here
Input Ideriv = 1
Curr. Ideriv = -1
Max.  Ideriv = 1

Checking the input file for inconsistencies... 	...done.

--------------------------------------------------------------
User input:
--------------------------------------------------------------
$molecule
read
$end

$rem

jobtype sp
exchange XYGJOS
xc_grid 000099000590
basis aug-cc-pcVQZ
aux_basis rimp2-aug-cc-pVQZ
max_scf_cycles 200
thresh 14
scf_convergence 8
mem_total 128000
cc_memory 96000
cc_backend xm
mem_static 1500
symmetry false
sym_ignore true
scf_guess read
unrestricted false
scf_algorithm gdm
n_frozen_core 0
$end

$multipole_field
XX -0.0001
$end


--------------------------------------------------------------
 ----------------------------------------------------------------
             Standard Nuclear Orientation (Angstroms)
    I     Atom           X                Y                Z
 ----------------------------------------------------------------
    1      P       0.0000000000     0.0000000000     0.0000000000
    2      H       0.0000000000     1.0229000000     0.9964000000
    3      H       0.0000000000    -1.0229000000     0.9964000000
 ----------------------------------------------------------------
 Nuclear Repulsion Energy =    11.3759605773 hartrees
 There are        9 alpha and        8 beta electrons
 Requested basis set is aug-cc-pCVQZ
 There are 62 shells and 226 basis functions

 Total QAlloc Memory Limit 128000 MB
 Mega-Array Size      1467 MB
 MEM_STATIC part      1500 MB

                       Distance Matrix (Angstroms)
             P (  1)   H (  2)
   H (  2)  1.427984
   H (  3)  1.427984  2.045800
 
 Applying Cartesian multipole field
    Component          Value
    ---------          -----
     (2,0,0)       -1.00000E-04
 Requested basis set is rimp2-aug-cc-pVQZ
 There are 84 shells and 354 basis functions
 A cutoff of  1.0D-14 yielded   1953 shell pairs
 There are     26129 function pairs (     41436 Cartesian)
 
 -------------------------------------------------------
 OpenMP Integral Computing Module                       
 Release: version 1.0, May 2013, Q-Chem Inc. Pittsburgh 
 -------------------------------------------------------
 Integral Job Info:
 Integral job number is                      11
 Integral operator is                         1
 short-range coefficients                     0
 long-range coefficients              100000000
 Omega coefficients                           0
 if combine SR and LR in K                    0
 Integral screening is                        0
 Integral computing path is                   2
 max size of driver memory is           3200000
 size of driver memory is               1704330
 size of scratch memory is             29435624
 max col of scratch BK array              50625
 max len of scratch array in speh3         2114
 max len of scratch index in speh4           50
 max int batch size is                      520
 min int batch size is                       52
 fixed nKL is                                22
 max L of basis functions is                  4
 order of int derivative is                   0
 number of shells is                         62
 number of basis is                         284
 number of cartesian basis is               284
 number of contracted shell pairs          1953
 number of primitive shell pairs           6866
 maxK2 (contraction) of shell pair          169
 max number of K2 of shell pair               1
 max number of CS2 of shell pair            227
 max number of PS2 of shell pair           1014
 mem total for path MDJ                  662152
 -------------------------------------------------------
 Smallest overlap matrix eigenvalue = 3.01E-05
 Guess MOs from SCF MO coefficient file
 Reading MOs from coefficient file
 Reading MOs from coefficient file
 A restricted hybrid HF-DFT SCF calculation will be
 performed using Geometric Direct Minimization
 Exchange:     0.2000 Hartree-Fock + 0.0800 Slater + 0.7200 B88
 Correlation:  0.1900 VWN1RPA + 0.8100 LYP
 Using Euler-Maclaurin-Lebedev (99,590) quadrature formula
 SCF converges when RMS gradient is below 1.0E-08
Using Q-Chem read-in guess as SCF_GUESS READ specified.

 using 8 threads for integral computing
 -------------------------------------------------------
 OpenMP Integral computing Module                
 Release: version 2.0, May 2017, Q-Chem Inc. Pleasanton 
 -------------------------------------------------------
TIMEINFO->: J/JK contribution 105.26 sec.
 -------------------------------------------------------
 OpenMP BLAS3 based DFT computing Module                
 Release: version 1.0, May 2013, Q-Chem Inc. Pittsburgh 
 -------------------------------------------------------
 ---------------------------------------
  Cycle       Energy        RMS Gradient
 ---------------------------------------
    1    -342.5475004532      2.12E-03 Normal BFGS step
TIMEINFO->: J/JK contribution 105.30 sec.
    2    -342.5475030034      1.34E-03 Normal BFGS step
TIMEINFO->: J/JK contribution 103.93 sec.
    3    -342.5475038159      1.62E-04 Normal BFGS step
TIMEINFO->: J/JK contribution 104.08 sec.
    4    -342.5475038591      8.38E-05 Normal BFGS step
TIMEINFO->: J/JK contribution 104.15 sec.
    5    -342.5475038703      1.85E-05 Normal BFGS step
TIMEINFO->: J/JK contribution 104.16 sec.
    6    -342.5475038707      7.05E-06 Normal BFGS step
TIMEINFO->: J/JK contribution 103.35 sec.
    7    -342.5475038709      1.61E-06 Normal BFGS step
TIMEINFO->: J/JK contribution 100.11 sec.
    8    -342.5475038709      3.98E-07 Normal BFGS step
TIMEINFO->: J/JK contribution 98.86 sec.
   GDM::WARNING energy changes are now smaller than effective accuracy.
   GDM::        calculation will continue, but THRESH should be increased
   GDM::        or SCF_CONVERGENCE decreased.
   GDM::        effective_thresh =   9.000000000000000E-011
    9    -342.5475038709      9.37E-09 Convergence criterion met
 ---------------------------------------
 B3LYP orbitals are now ready for the XYGJ-OS calculation.
 XYGJ-OS energy = Exch (0.7731 HF  + 0.2269 Slater) + 
                  Corr (0.2754 LYP + 0.2309 VWN1RPA + 0.4364 OS-MP2)
 SCF time:  CPU 1079.96 s  wall 136.33 s
 SCF   energy in the final basis set = -341.98831451
 Total energy in the final basis set = -341.98831451
 Entering Scaled Opposite Spin MP2
 NBasAux in rimp2.F =          354

 OS-MP2 job begins now...

 SOS scaling factor =  0.4
 Form (P|Q)**(-1/2)...
 
 Form (ia|P)...
 Form BiaQ = (ia|P)*(P|Q)**(-1/2)...
 Form (ia|P)...
 Form BiaQ = (ia|P)*(P|Q)**(-1/2)...
 Laplace quadrature loop begins
 Laplace point 1: correlation energy     =        -0.1859222778
 Laplace point 2: correlation energy     =        -0.1249687404
 Laplace point 3: correlation energy     =        -0.0704222738
 Laplace point 4: correlation energy     =        -0.0573934588
 Laplace point 5: correlation energy     =        -0.0262253064
 Laplace point 6: correlation energy     =        -0.0034726216
 Laplace point 7: correlation energy     =        -0.0000561229
 
 singles contribution not yet available for XYGJ-OS 
 Total OS-MP2 correlation energy         =        -0.4684608017

 Total XYGJ-OS energy                    =      -342.1939831572
 
 ------------------------------------------------------------------------------
                     SOSMP2        : Timing summary (seconds)
 ------------------------------------------------------------------------------
     job step          cpu (% of tot)      sys (% of tot)     wall (% of tot)
 ------------------------------------------------------------------------------
  Form inv (P|Q)    0.9322E+00 ( 2.3)   0.4000E-05 ( 2.4)   0.1172E+00 ( 2.1)
  Form (ia|P)       0.3600E+02 (89.1)   0.1470E-03 (87.0)   0.4515E+01 (80.7)
  Form  BiaQ        0.1136E+01 ( 2.8)   0.6000E-05 ( 3.6)   0.1423E+00 ( 2.5)
  LP orbitals       0.2809E+00 ( 0.7)   0.4000E-05 ( 2.4)   0.1261E+00 ( 2.3)
  Form  X(PQ)       0.1342E+01 ( 3.3)   0.5000E-05 ( 3.0)   0.5472E+00 ( 9.8)
  Increment EMP2    0.1368E+00 ( 0.3)   0.0000E+00 ( 0.0)   0.6840E-01 ( 1.2)
 ------------------------------------------------------------------------------
   Grand Totals     0.4041E+02          0.1690E-03          0.5593E+01
 ------------------------------------------------------------------------------
 
 --------------------------------------------------------------
 
                    Orbital Energies (a.u.)
 --------------------------------------------------------------
 
 Alpha MOs
 -- Occupied --
-77.070  -6.562  -4.722  -4.729  -4.719  -0.638  -0.392  -0.317
 -0.250
 -- Virtual --
 -0.014   0.004   0.023   0.032   0.039   0.053   0.077   0.078
  0.082   0.086   0.088   0.150   0.176   0.182   0.190   0.206
  0.206   0.207   0.224   0.275   0.270   0.299   0.305   0.310
  0.306   0.309   0.334   0.398   0.409   0.428   0.442   0.444
  0.449   0.452   0.538   0.554   0.583   0.612   0.620   0.628
  0.649   0.671   0.674   0.696   0.746   0.771   0.807   0.897
  0.914   0.923   0.929   0.965   0.997   1.006   1.008   1.012
  1.057   1.062   1.081   1.089   1.160   1.199   1.204   1.210
  1.235   1.243   1.251   1.298   1.299   1.356   1.424   1.496
  1.498   1.511   1.562   1.565   1.566   1.628   1.656   1.711
  1.759   1.811   1.868   1.904   1.923   1.925   1.940   1.989
  1.999   2.061   2.070   2.080   2.163   2.235   2.375   2.450
  2.466   2.467   2.495   2.565   2.601   2.643   2.650   2.699
  2.749   2.762   2.867   2.875   2.886   2.908   2.979   2.983
  3.059   3.079   3.104   3.148   3.209   3.235   3.267   3.302
  3.341   3.396   3.408   3.696   3.697   3.734   3.912   3.966
  4.050   4.152   4.224   4.573   5.186   5.407   6.318   6.325
  6.368   6.384   6.430   6.557   6.579   6.636   6.670   6.719
  6.807   6.865   6.970   7.119   7.191   7.655   7.664   8.064
  8.083   8.120   8.152   8.199   8.310   8.358   8.377   8.390
  8.427   8.514   8.749   8.888   8.893   8.909   9.025   9.040
  9.299   9.401   9.981  10.291  13.773  14.333  14.426  15.712
 15.802  15.832  15.846  15.940  16.282  16.305  23.116  26.564
 26.568  26.684  26.885  27.296  39.272  39.781  39.862  45.992
 45.992  45.995  45.995  45.997  45.998  45.999  46.005  46.006
 56.079  56.115  56.125  56.137  56.190  56.331  56.336  67.751
 78.996  78.999  79.084  79.194  79.509 123.929 124.333 124.398
324.918
 
 Beta MOs
 -- Occupied --
-77.066  -6.558  -4.719  -4.714  -4.717  -0.610  -0.384  -0.301
 -- Virtual --
 -0.129  -0.012   0.009   0.023   0.033   0.045   0.065   0.080
  0.079   0.089   0.094   0.096   0.150   0.180   0.183   0.190
  0.207   0.212   0.212   0.224   0.279   0.289   0.320   0.309
  0.314   0.326   0.328   0.337   0.403   0.412   0.429   0.444
  0.451   0.451   0.456   0.546   0.558   0.583   0.616   0.624
  0.632   0.654   0.674   0.678   0.698   0.751   0.774   0.807
  0.922   0.917   0.943   0.950   0.971   1.018   1.008   1.020
  1.016   1.074   1.087   1.122   1.114   1.168   1.210   1.220
  1.225   1.239   1.253   1.259   1.307   1.310   1.361   1.427
  1.501   1.502   1.523   1.573   1.569   1.569   1.635   1.658
  1.712   1.766   1.813   1.872   1.906   1.925   1.928   1.950
  2.004   2.008   2.064   2.074   2.085   2.169   2.254   2.382
  2.456   2.470   2.479   2.504   2.577   2.605   2.663   2.668
  2.722   2.770   2.785   2.877   2.890   2.919   2.927   2.984
  3.000   3.066   3.086   3.130   3.172   3.237   3.263   3.290
  3.318   3.357   3.410   3.413   3.702   3.702   3.757   3.918
  3.971   4.067   4.156   4.228   4.596   5.192   5.411   6.319
  6.326   6.370   6.385   6.431   6.560   6.581   6.641   6.673
  6.722   6.812   6.871   6.976   7.119   7.203   7.657   7.664
  8.068   8.087   8.121   8.153   8.200   8.315   8.370   8.378
  8.398   8.428   8.516   8.758   8.892   8.894   8.913   9.026
  9.040   9.301   9.403   9.985  10.294  13.792  14.337  14.430
 15.714  15.804  15.834  15.849  15.942  16.283  16.307  23.122
 26.574  26.578  26.686  26.897  27.298  39.285  39.784  39.864
 45.994  45.995  45.998  45.998  46.000  45.999  46.000  46.006
 46.006  56.085  56.122  56.132  56.147  56.195  56.333  56.338
 67.756  79.006  79.010  79.086  79.207  79.511 123.939 124.336
124.400 324.922
 --------------------------------------------------------------
 
          Ground-State Mulliken Net Atomic Charges

     Atom                 Charge (a.u.)
  ----------------------------------------
      1 P                    -0.080400
      2 H                     0.040200
      3 H                     0.040200
  ----------------------------------------
  Sum of atomic charges =    -0.000000

 -----------------------------------------------------------------
                    Cartesian Multipole Moments
 -----------------------------------------------------------------
    Charge (ESU x 10^10)
                -0.0000
    Dipole Moment (Debye)
         X       0.0000      Y       0.0000      Z       0.5000
       Tot       0.5000
    Quadrupole Moments (Debye-Ang)
        XX     -15.2422     XY       0.0000     YY     -14.1316
        XZ       0.0000     YZ       0.0000     ZZ     -15.4742
    Octopole Moments (Debye-Ang^2)
       XXX       0.0000    XXY       0.0000    XYY       0.0000
       YYY       0.0000    XXZ      -1.5361    XYZ       0.0000
       YYZ      -1.5697    XZZ       0.0000    YZZ       0.0000
       ZZZ      -4.8605
    Hexadecapole Moments (Debye-Ang^3)
      XXXX     -24.2863   XXXY       0.0000   XXYY      -9.5189
      XYYY       0.0000   YYYY     -31.4272   XXXZ       0.0000
      XXYZ      -0.0000   XYYZ       0.0000   YYYZ       0.0000
      XXZZ     -10.1713   XYZZ       0.0000   YYZZ     -10.5209
      XZZZ       0.0000   YZZZ       0.0000   ZZZZ     -35.9994
 -----------------------------------------------------------------
Archival summary:
1\1\n0094.mhg0\SP\ROProcedureUnspecified\BasisUnspecified\12(2)\yhljason\WedOct2104:00:232020WedOct2104:00:232020\0\\#,ROProcedureUnspecified,BasisUnspecified,\\0,2\P\H,1,1.42798\H,1,1.42798,2,91.5037\\\@

 Total job time:  143.14s(wall), 1127.59s(cpu) 
 Wed Oct 21 04:00:23 2020

        *************************************************************
        *                                                           *
        *  Thank you very much for using Q-Chem.  Have a nice day.  *
        *                                                           *
        *************************************************************


 
User input: 4 of 7 
 
Q-Chem Developer Version!
                  Welcome to Q-Chem
     A Quantum Leap Into The Future Of Chemistry


 Q-Chem 5.1, Q-Chem, Inc., Pleasanton, CA (2018)

 Yihan Shao,  Zhengting Gan,  E. Epifanovsky,  A. T. B. Gilbert,  M. Wormit,  
 J. Kussmann,  A. W. Lange,  A. Behn,  Jia Deng,  Xintian Feng,  D. Ghosh,  
 M. Goldey,  P. R. Horn,  L. D. Jacobson,  I. Kaliman,  T. Kus,  A. Landau,  
 Jie Liu,  E. I. Proynov,  R. M. Richard,  R. P. Steele,  E. J. Sundstrom,  
 H. L. Woodcock III,  P. M. Zimmerman,  D. Zuev,  B. Albrecht,  E. Alguire,  
 S. A. Baeppler,  D. Barton,  Z. Benda,  Y. A. Bernard,  E. J. Berquist,  
 K. B. Bravaya,  H. Burton,  D. Casanova,  Chun-Min Chang,  Yunqing Chen,  
 A. Chien,  K. D. Closser,  M. P. Coons,  S. Coriani,  S. Dasgupta,  
 A. L. Dempwolff,  M. Diedenhofen,  Hainam Do,  R. G. Edgar,  Po-Tung Fang,  
 S. Faraji,  S. Fatehi,  Qingguo Feng,  K. D. Fenk,  J. Fosso-Tande,  
 Qinghui Ge,  A. Ghysels,  G. Gidofalvi,  J. Gomes,  J. Gonthier,  A. Gunina,  
 D. Hait,  M. W. D. Hanson-Heine,  P. H. P. Harbach,  A. W. Hauser,  
 J. E. Herr,  E. G. Hohenstein,  Z. C. Holden,  Kerwin Hui,  B. C. Huynh,  
 T.-C. Jagau,  Hyunjun Ji,  B. Kaduk,  K. Khistyaev,  Jaehoon Kim,  
 P. Klunzinger,  K. Koh,  D. Kosenkov,  L. Koulias,  T. Kowalczyk,  
 C. M. Krauter,  A. Kunitsa,  Ka Un Lao,  A. Laurent,  K. V. Lawler,  
 Joonho Lee,  D. Lefrancois,  S. Lehtola,  D. S. Levine,  Yi-Pei Li,  
 You-Sheng Lin,  Fenglai Liu,  E. Livshits,  A. Luenser,  P. Manohar,  
 E. Mansoor,  S. F. Manzer,  Shan-Ping Mao,  Yuezhi Mao,  N. Mardirossian,  
 A. V. Marenich,  T. Markovich,  L. A. Martinez-Martinez,  S. A. Maurer,  
 N. J. Mayhall,  S. C. McKenzie,  J.-M. Mewes,  A. F. Morrison,  
 J. W. Mullinax,  K. Nanda,  T. S. Nguyen-Beck,  R. Olivares-Amaya,  
 J. A. Parkhill,  T. M. Perrine,  F. Plasser,  P. Pokhilko,  S. Prager,  
 A. Prociuk,  E. Ramos,  D. R. Rehn,  F. Rob,  M. Schneider,  N. Sergueev,  
 S. M. Sharada,  S. Sharma,  D. W. Small,  T. Stauch,  T. Stein,  
 Yu-Chuan Su,  A. J. W. Thom,  A. Tkatchenko,  T. Tsuchimochi,  N. M. Tubman,  
 L. Vogt,  M. L. Vidal,  O. Vydrov,  M. A. Watson,  J. Wenzel,  
 M. de Wergifosse,  T. A. Wesolowski,  A. White,  J. Witte,  A. Yamada,  
 Jun Yang,  K. Yao,  S. Yeganeh,  S. R. Yost,  Zhi-Qiang You,  A. Zech,  
 Igor Ying Zhang,  Xing Zhang,  Yan Zhao,  Ying Zhu,  B. R. Brooks,  
 G. K. L. Chan,  C. J. Cramer,  M. S. Gordon,  W. J. Hehre,  A. Klamt,  
 M. W. Schmidt,  C. D. Sherrill,  D. G. Truhlar,  A. Aspuru-Guzik,  R. Baer,  
 A. T. Bell,  N. A. Besley,  Jeng-Da Chai,  A. E. DePrince, III,  
 R. A. DiStasio Jr.,  A. Dreuw,  B. D. Dunietz,  T. R. Furlani,  
 Chao-Ping Hsu,  Yousung Jung,  Jing Kong,  D. S. Lambrecht,  WanZhen Liang,  
 C. Ochsenfeld,  V. A. Rassolov,  L. V. Slipchenko,  J. E. Subotnik,  
 T. Van Voorhis,  J. M. Herbert,  A. I. Krylov,  P. M. W. Gill,  M. Head-Gordon

 Contributors to earlier versions of Q-Chem not listed above: 
 R. D. Adamson,  B. Austin,  J. Baker,  G. J. O. Beran,  K. Brandhorst,  
 S. T. Brown,  E. F. C. Byrd,  A. K. Chakraborty,  C.-L. Cheng,  
 Siu Hung Chien,  D. M. Chipman,  D. L. Crittenden,  H. Dachsel,  
 R. J. Doerksen,  A. D. Dutoi,  L. Fusti-Molnar,  W. A. Goddard III,  
 A. Golubeva-Zadorozhnaya,  S. R. Gwaltney,  G. Hawkins,  A. Heyden,  
 S. Hirata,  G. Kedziora,  F. J. Keil,  C. Kelley,  Jihan Kim,  R. A. King,  
 R. Z. Khaliullin,  P. P. Korambath,  W. Kurlancheek,  A. M. Lee,  M. S. Lee,  
 S. V. Levchenko,  Ching Yeh Lin,  D. Liotard,  R. C. Lochan,  I. Lotan,  
 P. E. Maslen,  N. Nair,  D. P. O'Neill,  D. Neuhauser,  E. Neuscamman,  
 C. M. Oana,  R. Olson,  B. Peters,  R. Peverati,  P. A. Pieniazek,  
 Y. M. Rhee,  J. Ritchie,  M. A. Rohrdanz,  E. Rosta,  N. J. Russ,  
 H. F. Schaefer III,  N. E. Schultz,  N. Shenvi,  A. C. Simmonett,  A. Sodt,  
 D. Stuck,  K. S. Thanthiriwatte,  V. Vanovschi,  Tao Wang,  A. Warshel,  
 C. F. Williams,  Q. Wu,  X. Xu,  W. Zhang

 Please cite Q-Chem as follows:
 Y. Shao et al., Mol. Phys. 113, 184-215 (2015)
 DOI: 10.1080/00268976.2014.952696

 Q-Chem 5.1.1 for Intel X86 EM64T Linux

 Parts of Q-Chem use Armadillo 8.300.2 (Tropical Shenanigans).
 http://arma.sourceforge.net/

 Q-Chem begins on Wed Oct 21 04:00:23 2020  

Host: n0094.mhg0
0

     Scratch files written to /local/scratch/users/yhljason/PH2_XYGJOS_aug-cc-pcVQZ.inp20201021032932//
The previous job contains 0 fragments, simply inherited here
Input Ideriv = 1
Curr. Ideriv = -1
Max.  Ideriv = 1

Checking the input file for inconsistencies... 	...done.

--------------------------------------------------------------
User input:
--------------------------------------------------------------
$molecule
read
$end

$rem

jobtype sp
exchange XYGJOS
xc_grid 000099000590
basis aug-cc-pcVQZ
aux_basis rimp2-aug-cc-pVQZ
max_scf_cycles 200
thresh 14
scf_convergence 8
mem_total 128000
cc_memory 96000
cc_backend xm
mem_static 1500
symmetry false
sym_ignore true
scf_guess read
unrestricted false
scf_algorithm gdm
n_frozen_core 0
$end

$multipole_field
YY 0.0001
$end


--------------------------------------------------------------
 ----------------------------------------------------------------
             Standard Nuclear Orientation (Angstroms)
    I     Atom           X                Y                Z
 ----------------------------------------------------------------
    1      P       0.0000000000     0.0000000000     0.0000000000
    2      H       0.0000000000     1.0229000000     0.9964000000
    3      H       0.0000000000    -1.0229000000     0.9964000000
 ----------------------------------------------------------------
 Nuclear Repulsion Energy =    11.3759605773 hartrees
 There are        9 alpha and        8 beta electrons
 Requested basis set is aug-cc-pCVQZ
 There are 62 shells and 226 basis functions

 Total QAlloc Memory Limit 128000 MB
 Mega-Array Size      1467 MB
 MEM_STATIC part      1500 MB

                       Distance Matrix (Angstroms)
             P (  1)   H (  2)
   H (  2)  1.427984
   H (  3)  1.427984  2.045800
 
 Applying Cartesian multipole field
    Component          Value
    ---------          -----
     (0,2,0)        1.00000E-04
 Nucleus-field energy     =     0.0007472985 hartrees
 Requested basis set is rimp2-aug-cc-pVQZ
 There are 84 shells and 354 basis functions
 A cutoff of  1.0D-14 yielded   1953 shell pairs
 There are     26129 function pairs (     41436 Cartesian)
 
 -------------------------------------------------------
 OpenMP Integral Computing Module                       
 Release: version 1.0, May 2013, Q-Chem Inc. Pittsburgh 
 -------------------------------------------------------
 Integral Job Info:
 Integral job number is                      11
 Integral operator is                         1
 short-range coefficients                     0
 long-range coefficients              100000000
 Omega coefficients                           0
 if combine SR and LR in K                    0
 Integral screening is                        0
 Integral computing path is                   2
 max size of driver memory is           3200000
 size of driver memory is               1704330
 size of scratch memory is             29435624
 max col of scratch BK array              50625
 max len of scratch array in speh3         2114
 max len of scratch index in speh4           50
 max int batch size is                      520
 min int batch size is                       52
 fixed nKL is                                22
 max L of basis functions is                  4
 order of int derivative is                   0
 number of shells is                         62
 number of basis is                         284
 number of cartesian basis is               284
 number of contracted shell pairs          1953
 number of primitive shell pairs           6866
 maxK2 (contraction) of shell pair          169
 max number of K2 of shell pair               1
 max number of CS2 of shell pair            227
 max number of PS2 of shell pair           1014
 mem total for path MDJ                  662152
 -------------------------------------------------------
 Smallest overlap matrix eigenvalue = 3.01E-05
 Guess MOs from SCF MO coefficient file
 Reading MOs from coefficient file
 Reading MOs from coefficient file
 A restricted hybrid HF-DFT SCF calculation will be
 performed using Geometric Direct Minimization
 Exchange:     0.2000 Hartree-Fock + 0.0800 Slater + 0.7200 B88
 Correlation:  0.1900 VWN1RPA + 0.8100 LYP
 Using Euler-Maclaurin-Lebedev (99,590) quadrature formula
 SCF converges when RMS gradient is below 1.0E-08
Using Q-Chem read-in guess as SCF_GUESS READ specified.

 using 8 threads for integral computing
 -------------------------------------------------------
 OpenMP Integral computing Module                
 Release: version 2.0, May 2017, Q-Chem Inc. Pleasanton 
 -------------------------------------------------------
TIMEINFO->: J/JK contribution 107.26 sec.
 -------------------------------------------------------
 OpenMP BLAS3 based DFT computing Module                
 Release: version 1.0, May 2013, Q-Chem Inc. Pittsburgh 
 -------------------------------------------------------
 ---------------------------------------
  Cycle       Energy        RMS Gradient
 ---------------------------------------
    1    -342.5496877419      1.40E-03 Normal BFGS step
TIMEINFO->: J/JK contribution 106.04 sec.
    2    -342.5496888014      1.10E-03 Normal BFGS step
TIMEINFO->: J/JK contribution 105.34 sec.
    3    -342.5496895693      1.11E-04 Normal BFGS step
TIMEINFO->: J/JK contribution 104.15 sec.
    4    -342.5496895818      6.23E-05 Normal BFGS step
TIMEINFO->: J/JK contribution 104.83 sec.
    5    -342.5496895879      1.06E-05 Normal BFGS step
TIMEINFO->: J/JK contribution 102.63 sec.
    6    -342.5496895881      3.16E-06 Normal BFGS step
TIMEINFO->: J/JK contribution 101.59 sec.
    7    -342.5496895881      6.18E-07 Normal BFGS step
TIMEINFO->: J/JK contribution 97.46 sec.
    8    -342.5496895881      1.90E-07 Normal BFGS step
TIMEINFO->: J/JK contribution 95.00 sec.
   GDM::WARNING energy changes are now smaller than effective accuracy.
   GDM::        calculation will continue, but THRESH should be increased
   GDM::        or SCF_CONVERGENCE decreased.
   GDM::        effective_thresh =   9.000000000000000E-011
    9    -342.5496895881      2.78E-09 Convergence criterion met
 ---------------------------------------
 B3LYP orbitals are now ready for the XYGJ-OS calculation.
 XYGJ-OS energy = Exch (0.7731 HF  + 0.2269 Slater) + 
                  Corr (0.2754 LYP + 0.2309 VWN1RPA + 0.4364 OS-MP2)
 SCF time:  CPU 1076.24 s  wall 135.92 s
 SCF   energy in the final basis set = -341.99049195
 Total energy in the final basis set = -341.99049195
 Entering Scaled Opposite Spin MP2
 NBasAux in rimp2.F =          354

 OS-MP2 job begins now...

 SOS scaling factor =  0.4
 Form (P|Q)**(-1/2)...
 
 Form (ia|P)...
 Form BiaQ = (ia|P)*(P|Q)**(-1/2)...
 Form (ia|P)...
 Form BiaQ = (ia|P)*(P|Q)**(-1/2)...
 Laplace quadrature loop begins
 Laplace point 1: correlation energy     =        -0.1859157796
 Laplace point 2: correlation energy     =        -0.1249572951
 Laplace point 3: correlation energy     =        -0.0704105885
 Laplace point 4: correlation energy     =        -0.0573967229
 Laplace point 5: correlation energy     =        -0.0262406780
 Laplace point 6: correlation energy     =        -0.0034792929
 Laplace point 7: correlation energy     =        -0.0000564939
 
 singles contribution not yet available for XYGJ-OS 
 Total OS-MP2 correlation energy         =        -0.4684568509

 Total XYGJ-OS energy                    =      -342.1961571056
 
 ------------------------------------------------------------------------------
                     SOSMP2        : Timing summary (seconds)
 ------------------------------------------------------------------------------
     job step          cpu (% of tot)      sys (% of tot)     wall (% of tot)
 ------------------------------------------------------------------------------
  Form inv (P|Q)    0.9109E+00 ( 2.2)   0.4000E-05 ( 2.2)   0.1145E+00 ( 2.0)
  Form (ia|P)       0.3630E+02 (87.5)   0.1580E-03 (85.4)   0.4557E+01 (80.7)
  Form  BiaQ        0.1110E+01 ( 2.7)   0.6000E-05 ( 3.2)   0.1393E+00 ( 2.5)
  LP orbitals       0.4345E+00 ( 1.0)   0.2000E-05 ( 1.1)   0.1263E+00 ( 2.2)
  Form  X(PQ)       0.2150E+01 ( 5.2)   0.1200E-04 ( 6.5)   0.5766E+00 (10.2)
  Increment EMP2    0.1727E+00 ( 0.4)   0.0000E+00 ( 0.0)   0.6591E-01 ( 1.2)
 ------------------------------------------------------------------------------
   Grand Totals     0.4150E+02          0.1850E-03          0.5650E+01
 ------------------------------------------------------------------------------
 
 --------------------------------------------------------------
 
                    Orbital Energies (a.u.)
 --------------------------------------------------------------
 
 Alpha MOs
 -- Occupied --
-77.071  -6.563  -4.722  -4.730  -4.720  -0.638  -0.392  -0.318
 -0.251
 -- Virtual --
[...]
      XYYY       0.0000   YYYY     -31.4572   XXXZ      -0.0000
      XXYZ       0.0000   XYYZ       0.0000   YYYZ       0.0000
      XXZZ     -10.2250   XYZZ       0.0000   YYZZ     -10.5621
      XZZZ       0.0000   YZZZ       0.0000   ZZZZ     -36.1889
 -----------------------------------------------------------------
Archival summary:
1\1\n0094.mhg0\SP\ROProcedureUnspecified\BasisUnspecified\12(2)\yhljason\WedOct2104:07:502020WedOct2104:07:502020\0\\#,ROProcedureUnspecified,BasisUnspecified,\\0,2\P\H,1,1.42798\H,1,1.42798,2,91.5037\\\@

 Total job time:  145.47s(wall), 1128.28s(cpu) 
 Wed Oct 21 04:07:50 2020

        *************************************************************
        *                                                           *
        *  Thank you very much for using Q-Chem.  Have a nice day.  *
        *                                                           *
        *************************************************************


 
User input: 7 of 7 
 
Q-Chem Developer Version!
                  Welcome to Q-Chem
     A Quantum Leap Into The Future Of Chemistry


 Q-Chem 5.1, Q-Chem, Inc., Pleasanton, CA (2018)

 Yihan Shao,  Zhengting Gan,  E. Epifanovsky,  A. T. B. Gilbert,  M. Wormit,  
 J. Kussmann,  A. W. Lange,  A. Behn,  Jia Deng,  Xintian Feng,  D. Ghosh,  
 M. Goldey,  P. R. Horn,  L. D. Jacobson,  I. Kaliman,  T. Kus,  A. Landau,  
 Jie Liu,  E. I. Proynov,  R. M. Richard,  R. P. Steele,  E. J. Sundstrom,  
 H. L. Woodcock III,  P. M. Zimmerman,  D. Zuev,  B. Albrecht,  E. Alguire,  
 S. A. Baeppler,  D. Barton,  Z. Benda,  Y. A. Bernard,  E. J. Berquist,  
 K. B. Bravaya,  H. Burton,  D. Casanova,  Chun-Min Chang,  Yunqing Chen,  
 A. Chien,  K. D. Closser,  M. P. Coons,  S. Coriani,  S. Dasgupta,  
 A. L. Dempwolff,  M. Diedenhofen,  Hainam Do,  R. G. Edgar,  Po-Tung Fang,  
 S. Faraji,  S. Fatehi,  Qingguo Feng,  K. D. Fenk,  J. Fosso-Tande,  
 Qinghui Ge,  A. Ghysels,  G. Gidofalvi,  J. Gomes,  J. Gonthier,  A. Gunina,  
 D. Hait,  M. W. D. Hanson-Heine,  P. H. P. Harbach,  A. W. Hauser,  
 J. E. Herr,  E. G. Hohenstein,  Z. C. Holden,  Kerwin Hui,  B. C. Huynh,  
 T.-C. Jagau,  Hyunjun Ji,  B. Kaduk,  K. Khistyaev,  Jaehoon Kim,  
 P. Klunzinger,  K. Koh,  D. Kosenkov,  L. Koulias,  T. Kowalczyk,  
 C. M. Krauter,  A. Kunitsa,  Ka Un Lao,  A. Laurent,  K. V. Lawler,  
 Joonho Lee,  D. Lefrancois,  S. Lehtola,  D. S. Levine,  Yi-Pei Li,  
 You-Sheng Lin,  Fenglai Liu,  E. Livshits,  A. Luenser,  P. Manohar,  
 E. Mansoor,  S. F. Manzer,  Shan-Ping Mao,  Yuezhi Mao,  N. Mardirossian,  
 A. V. Marenich,  T. Markovich,  L. A. Martinez-Martinez,  S. A. Maurer,  
 N. J. Mayhall,  S. C. McKenzie,  J.-M. Mewes,  A. F. Morrison,  
 J. W. Mullinax,  K. Nanda,  T. S. Nguyen-Beck,  R. Olivares-Amaya,  
 J. A. Parkhill,  T. M. Perrine,  F. Plasser,  P. Pokhilko,  S. Prager,  
 A. Prociuk,  E. Ramos,  D. R. Rehn,  F. Rob,  M. Schneider,  N. Sergueev,  
 S. M. Sharada,  S. Sharma,  D. W. Small,  T. Stauch,  T. Stein,  
 Yu-Chuan Su,  A. J. W. Thom,  A. Tkatchenko,  T. Tsuchimochi,  N. M. Tubman,  
 L. Vogt,  M. L. Vidal,  O. Vydrov,  M. A. Watson,  J. Wenzel,  
 M. de Wergifosse,  T. A. Wesolowski,  A. White,  J. Witte,  A. Yamada,  
 Jun Yang,  K. Yao,  S. Yeganeh,  S. R. Yost,  Zhi-Qiang You,  A. Zech,  
 Igor Ying Zhang,  Xing Zhang,  Yan Zhao,  Ying Zhu,  B. R. Brooks,  
 G. K. L. Chan,  C. J. Cramer,  M. S. Gordon,  W. J. Hehre,  A. Klamt,  
 M. W. Schmidt,  C. D. Sherrill,  D. G. Truhlar,  A. Aspuru-Guzik,  R. Baer,  
 A. T. Bell,  N. A. Besley,  Jeng-Da Chai,  A. E. DePrince, III,  
 R. A. DiStasio Jr.,  A. Dreuw,  B. D. Dunietz,  T. R. Furlani,  
 Chao-Ping Hsu,  Yousung Jung,  Jing Kong,  D. S. Lambrecht,  WanZhen Liang,  
 C. Ochsenfeld,  V. A. Rassolov,  L. V. Slipchenko,  J. E. Subotnik,  
 T. Van Voorhis,  J. M. Herbert,  A. I. Krylov,  P. M. W. Gill,  M. Head-Gordon

 Contributors to earlier versions of Q-Chem not listed above: 
 R. D. Adamson,  B. Austin,  J. Baker,  G. J. O. Beran,  K. Brandhorst,  
 S. T. Brown,  E. F. C. Byrd,  A. K. Chakraborty,  C.-L. Cheng,  
 Siu Hung Chien,  D. M. Chipman,  D. L. Crittenden,  H. Dachsel,  
 R. J. Doerksen,  A. D. Dutoi,  L. Fusti-Molnar,  W. A. Goddard III,  
 A. Golubeva-Zadorozhnaya,  S. R. Gwaltney,  G. Hawkins,  A. Heyden,  
 S. Hirata,  G. Kedziora,  F. J. Keil,  C. Kelley,  Jihan Kim,  R. A. King,  
 R. Z. Khaliullin,  P. P. Korambath,  W. Kurlancheek,  A. M. Lee,  M. S. Lee,  
 S. V. Levchenko,  Ching Yeh Lin,  D. Liotard,  R. C. Lochan,  I. Lotan,  
 P. E. Maslen,  N. Nair,  D. P. O'Neill,  D. Neuhauser,  E. Neuscamman,  
 C. M. Oana,  R. Olson,  B. Peters,  R. Peverati,  P. A. Pieniazek,  
 Y. M. Rhee,  J. Ritchie,  M. A. Rohrdanz,  E. Rosta,  N. J. Russ,  
 H. F. Schaefer III,  N. E. Schultz,  N. Shenvi,  A. C. Simmonett,  A. Sodt,  
 D. Stuck,  K. S. Thanthiriwatte,  V. Vanovschi,  Tao Wang,  A. Warshel,  
 C. F. Williams,  Q. Wu,  X. Xu,  W. Zhang

 Please cite Q-Chem as follows:
 Y. Shao et al., Mol. Phys. 113, 184-215 (2015)
 DOI: 10.1080/00268976.2014.952696

 Q-Chem 5.1.1 for Intel X86 EM64T Linux

 Parts of Q-Chem use Armadillo 8.300.2 (Tropical Shenanigans).
 http://arma.sourceforge.net/

 Q-Chem begins on Wed Oct 21 04:07:51 2020  

Host: n0094.mhg0
0

     Scratch files written to /local/scratch/users/yhljason/PH2_XYGJOS_aug-cc-pcVQZ.inp20201021032932//
The previous job contains 0 fragments, simply inherited here
Input Ideriv = 1
Curr. Ideriv = -1
Max.  Ideriv = 1

Checking the input file for inconsistencies... 	...done.

--------------------------------------------------------------
User input:
--------------------------------------------------------------
$molecule
read
$end

$rem

jobtype sp
exchange XYGJOS
xc_grid 000099000590
basis aug-cc-pcVQZ
aux_basis rimp2-aug-cc-pVQZ
max_scf_cycles 200
thresh 14
scf_convergence 8
mem_total 128000
cc_memory 96000
cc_backend xm
mem_static 1500
symmetry false
sym_ignore true
scf_guess read
unrestricted false
scf_algorithm gdm
n_frozen_core 0
$end

$multipole_field
ZZ -0.0001
$end

--------------------------------------------------------------
 ----------------------------------------------------------------
             Standard Nuclear Orientation (Angstroms)
    I     Atom           X                Y                Z
 ----------------------------------------------------------------
    1      P       0.0000000000     0.0000000000     0.0000000000
    2      H       0.0000000000     1.0229000000     0.9964000000
    3      H       0.0000000000    -1.0229000000     0.9964000000
 ----------------------------------------------------------------
 Nuclear Repulsion Energy =    11.3759605773 hartrees
 There are        9 alpha and        8 beta electrons
 Requested basis set is aug-cc-pCVQZ
 There are 62 shells and 226 basis functions

 Total QAlloc Memory Limit 128000 MB
 Mega-Array Size      1467 MB
 MEM_STATIC part      1500 MB

                       Distance Matrix (Angstroms)
             P (  1)   H (  2)
   H (  2)  1.427984
   H (  3)  1.427984  2.045800
 
 Applying Cartesian multipole field
    Component          Value
    ---------          -----
     (0,0,2)       -1.00000E-04
 Nucleus-field energy     =    -0.0007090799 hartrees
 Requested basis set is rimp2-aug-cc-pVQZ
 There are 84 shells and 354 basis functions
 A cutoff of  1.0D-14 yielded   1953 shell pairs
 There are     26129 function pairs (     41436 Cartesian)
 
 -------------------------------------------------------
 OpenMP Integral Computing Module                       
 Release: version 1.0, May 2013, Q-Chem Inc. Pittsburgh 
 -------------------------------------------------------
 Integral Job Info:
 Integral job number is                      11
 Integral operator is                         1
 short-range coefficients                     0
 long-range coefficients              100000000
 Omega coefficients                           0
 if combine SR and LR in K                    0
 Integral screening is                        0
 Integral computing path is                   2
 max size of driver memory is           3200000
 size of driver memory is               1704330
 size of scratch memory is             29435624
 max col of scratch BK array              50625
 max len of scratch array in speh3         2114
 max len of scratch index in speh4           50
 max int batch size is                      520
 min int batch size is                       52
 fixed nKL is                                22
 max L of basis functions is                  4
 order of int derivative is                   0
 number of shells is                         62
 number of basis is                         284
 number of cartesian basis is               284
 number of contracted shell pairs          1953
 number of primitive shell pairs           6866
 maxK2 (contraction) of shell pair          169
 max number of K2 of shell pair               1
 max number of CS2 of shell pair            227
 max number of PS2 of shell pair           1014
 mem total for path MDJ                  662152
 -------------------------------------------------------
 Smallest overlap matrix eigenvalue = 3.01E-05
 Guess MOs from SCF MO coefficient file
 Reading MOs from coefficient file
 Reading MOs from coefficient file
 A restricted hybrid HF-DFT SCF calculation will be
 performed using Geometric Direct Minimization
 Exchange:     0.2000 Hartree-Fock + 0.0800 Slater + 0.7200 B88
 Correlation:  0.1900 VWN1RPA + 0.8100 LYP
 Using Euler-Maclaurin-Lebedev (99,590) quadrature formula
 SCF converges when RMS gradient is below 1.0E-08
Using Q-Chem read-in guess as SCF_GUESS READ specified.

 using 8 threads for integral computing
 -------------------------------------------------------
 OpenMP Integral computing Module                
 Release: version 2.0, May 2017, Q-Chem Inc. Pleasanton 
 -------------------------------------------------------
TIMEINFO->: J/JK contribution 106.90 sec.
 -------------------------------------------------------
 OpenMP BLAS3 based DFT computing Module                
 Release: version 1.0, May 2013, Q-Chem Inc. Pittsburgh 
 -------------------------------------------------------
 ---------------------------------------
  Cycle       Energy        RMS Gradient
 ---------------------------------------
    1    -342.5474840498      1.61E-03 Normal BFGS step
TIMEINFO->: J/JK contribution 105.49 sec.
    2    -342.5474873299      9.14E-04 Normal BFGS step
TIMEINFO->: J/JK contribution 106.42 sec.
    3    -342.5474883441      1.90E-04 Normal BFGS step
TIMEINFO->: J/JK contribution 106.76 sec.
    4    -342.5474884368      4.18E-05 Normal BFGS step
TIMEINFO->: J/JK contribution 104.43 sec.
    5    -342.5474884418      2.04E-05 Normal BFGS step
TIMEINFO->: J/JK contribution 103.50 sec.
    6    -342.5474884426      3.87E-06 Normal BFGS step
TIMEINFO->: J/JK contribution 103.57 sec.
    7    -342.5474884426      5.81E-07 Normal BFGS step
TIMEINFO->: J/JK contribution 99.81 sec.
    8    -342.5474884426      9.54E-08 Normal BFGS step
TIMEINFO->: J/JK contribution 95.84 sec.
   GDM::WARNING energy changes are now smaller than effective accuracy.
   GDM::        calculation will continue, but THRESH should be increased
   GDM::        or SCF_CONVERGENCE decreased.
   GDM::        effective_thresh =   2.949473457136698E-009
    9    -342.5474884426      1.90E-08 Normal BFGS step
TIMEINFO->: J/JK contribution 92.33 sec.
   10    -342.5474884426      1.55E-09 Convergence criterion met
 ---------------------------------------
 B3LYP orbitals are now ready for the XYGJ-OS calculation.
 XYGJ-OS energy = Exch (0.7731 HF  + 0.2269 Slater) + 
                  Corr (0.2754 LYP + 0.2309 VWN1RPA + 0.4364 OS-MP2)
 SCF time:  CPU 1187.52 s  wall 150.08 s
 SCF   energy in the final basis set = -341.98829931
 Total energy in the final basis set = -341.98829931
 Entering Scaled Opposite Spin MP2
 NBasAux in rimp2.F =          354

 OS-MP2 job begins now...

 SOS scaling factor =  0.4
 Form (P|Q)**(-1/2)...
 
 Form (ia|P)...
 Form BiaQ = (ia|P)*(P|Q)**(-1/2)...
 Form (ia|P)...
 Form BiaQ = (ia|P)*(P|Q)**(-1/2)...
 Laplace quadrature loop begins
 Laplace point 1: correlation energy     =        -0.1859229638
 Laplace point 2: correlation energy     =        -0.1249704765
 Laplace point 3: correlation energy     =        -0.0704262116
 Laplace point 4: correlation energy     =        -0.0573989534
 Laplace point 5: correlation energy     =        -0.0262293391
 Laplace point 6: correlation energy     =        -0.0034734706
 Laplace point 7: correlation energy     =        -0.0000561787
 
 singles contribution not yet available for XYGJ-OS 
 Total OS-MP2 correlation energy         =        -0.4684775937

 Total XYGJ-OS energy                    =      -342.1939740260
 
 ------------------------------------------------------------------------------
                     SOSMP2        : Timing summary (seconds)
 ------------------------------------------------------------------------------
     job step          cpu (% of tot)      sys (% of tot)     wall (% of tot)
 ------------------------------------------------------------------------------
  Form inv (P|Q)    0.6452E+00 ( 1.5)   0.3000E-05 ( 1.7)   0.9253E-01 ( 1.5)
  Form (ia|P)       0.3797E+02 (89.0)   0.1620E-03 (90.0)   0.4911E+01 (82.2)
  Form  BiaQ        0.1130E+01 ( 2.6)   0.2000E-05 ( 1.1)   0.1417E+00 ( 2.4)
  LP orbitals       0.4152E+00 ( 1.0)   0.2000E-05 ( 1.1)   0.1336E+00 ( 2.2)
  Form  X(PQ)       0.1919E+01 ( 4.5)   0.8000E-05 ( 4.4)   0.5671E+00 ( 9.5)
  Increment EMP2    0.1611E+00 ( 0.4)   0.1000E-05 ( 0.6)   0.6818E-01 ( 1.1)
 ------------------------------------------------------------------------------
   Grand Totals     0.4267E+02          0.1800E-03          0.5977E+01
 ------------------------------------------------------------------------------
 
 --------------------------------------------------------------
 
                    Orbital Energies (a.u.)
 --------------------------------------------------------------
 
 Alpha MOs
 -- Occupied --
-77.070  -6.562  -4.721  -4.729  -4.719  -0.638  -0.391  -0.317
 -0.250
 -- Virtual --
 -0.013   0.005   0.024   0.034   0.037   0.053   0.078   0.080
  0.082   0.085   0.088   0.151   0.177   0.183   0.191   0.206
  0.205   0.208   0.225   0.269   0.275   0.298   0.305   0.310
  0.306   0.309   0.334   0.398   0.409   0.429   0.443   0.443
  0.450   0.452   0.539   0.555   0.583   0.612   0.620   0.628
  0.650   0.671   0.674   0.696   0.747   0.772   0.808   0.898
  0.914   0.923   0.929   0.965   0.997   1.007   1.008   1.013
  1.057   1.062   1.081   1.089   1.160   1.199   1.204   1.210
  1.235   1.243   1.251   1.298   1.299   1.357   1.424   1.497
  1.499   1.511   1.562   1.565   1.566   1.628   1.657   1.711
  1.759   1.812   1.869   1.904   1.924   1.926   1.940   1.990
  1.999   2.061   2.071   2.080   2.164   2.235   2.375   2.450
  2.466   2.467   2.495   2.565   2.601   2.643   2.651   2.699
  2.749   2.762   2.867   2.875   2.886   2.908   2.979   2.983
  3.059   3.080   3.104   3.149   3.209   3.235   3.267   3.302
  3.342   3.396   3.409   3.697   3.697   3.734   3.913   3.966
  4.050   4.152   4.224   4.573   5.186   5.407   6.318   6.325
  6.368   6.384   6.430   6.557   6.579   6.636   6.670   6.720
  6.807   6.865   6.970   7.119   7.192   7.656   7.664   8.064
  8.083   8.121   8.153   8.199   8.311   8.359   8.377   8.390
  8.427   8.514   8.749   8.888   8.893   8.910   9.026   9.041
  9.300   9.401   9.981  10.291  13.773  14.333  14.426  15.712
 15.802  15.832  15.846  15.940  16.282  16.306  23.116  26.564
 26.568  26.684  26.885  27.296  39.272  39.781  39.862  45.992
 45.992  45.995  45.995  45.997  45.998  45.999  46.006  46.006
 56.079  56.115  56.125  56.137  56.190  56.331  56.336  67.751
 78.996  78.999  79.084  79.194  79.509 123.929 124.334 124.398
324.918
 
 Beta MOs
 -- Occupied --
-77.066  -6.558  -4.719  -4.714  -4.716  -0.609  -0.384  -0.301
 -- Virtual --
 -0.129  -0.011   0.009   0.024   0.035   0.042   0.065   0.081
  0.081   0.089   0.094   0.096   0.151   0.181   0.184   0.191
  0.207   0.211   0.213   0.225   0.288   0.280   0.319   0.309
  0.314   0.326   0.327   0.337   0.404   0.412   0.429   0.444
  0.451   0.452   0.456   0.547   0.559   0.584   0.617   0.624
  0.631   0.655   0.674   0.678   0.698   0.752   0.775   0.808
  0.922   0.917   0.942   0.950   0.971   1.018   1.008   1.021
  1.017   1.074   1.087   1.121   1.114   1.168   1.210   1.220
  1.225   1.240   1.253   1.259   1.308   1.310   1.362   1.427
  1.502   1.503   1.523   1.573   1.570   1.570   1.635   1.658
  1.713   1.766   1.813   1.873   1.906   1.926   1.928   1.950
  2.004   2.008   2.064   2.075   2.085   2.170   2.254   2.382
  2.456   2.470   2.479   2.505   2.578   2.606   2.664   2.668
  2.722   2.770   2.785   2.877   2.890   2.919   2.927   2.985
  3.000   3.066   3.087   3.130   3.172   3.237   3.263   3.290
  3.318   3.358   3.410   3.413   3.702   3.702   3.757   3.918
  3.972   4.067   4.156   4.228   4.596   5.192   5.411   6.319
  6.326   6.370   6.386   6.431   6.560   6.582   6.641   6.674
  6.722   6.813   6.872   6.976   7.120   7.203   7.657   7.665
  8.069   8.088   8.121   8.153   8.200   8.315   8.370   8.379
  8.398   8.428   8.516   8.758   8.892   8.894   8.913   9.027
  9.041   9.301   9.403   9.985  10.294  13.792  14.337  14.430
 15.714  15.804  15.834  15.849  15.942  16.283  16.307  23.122
 26.574  26.578  26.686  26.897  27.298  39.285  39.784  39.865
 45.994  45.995  45.998  45.998  46.000  45.999  46.001  46.006
 46.007  56.085  56.122  56.132  56.147  56.196  56.333  56.338
 67.756  79.006  79.010  79.086  79.208  79.511 123.939 124.336
124.400 324.922
 --------------------------------------------------------------
 
          Ground-State Mulliken Net Atomic Charges

     Atom                 Charge (a.u.)
  ----------------------------------------
      1 P                    -0.087750
      2 H                     0.043875
      3 H                     0.043875
  ----------------------------------------
  Sum of atomic charges =    -0.000000

 -----------------------------------------------------------------
                    Cartesian Multipole Moments
 -----------------------------------------------------------------
    Charge (ESU x 10^10)
                -0.0000
    Dipole Moment (Debye)
         X       0.0000      Y       0.0000      Z       0.5065
       Tot       0.5065
    Quadrupole Moments (Debye-Ang)
        XX     -15.2634     XY       0.0000     YY     -14.1299
        XZ      -0.0000     YZ       0.0000     ZZ     -15.4464
    Octopole Moments (Debye-Ang^2)
       XXX       0.0000    XXY       0.0000    XYY       0.0000
       YYY       0.0000    XXZ      -1.5329    XYZ      -0.0000
       YYZ      -1.5569    XZZ       0.0000    YZZ       0.0000
       ZZZ      -4.8332
    Hexadecapole Moments (Debye-Ang^3)
      XXXX     -24.4167   XXXY       0.0000   XXYY      -9.5384
      XYYY       0.0000   YYYY     -31.4208   XXXZ       0.0000
      XXYZ       0.0000   XYYZ       0.0000   YYYZ       0.0000
      XXZZ     -10.1719   XYZZ       0.0000   YYZZ     -10.4858
      XZZZ      -0.0000   YZZZ       0.0000   ZZZZ     -35.8449
 -----------------------------------------------------------------
Archival summary:
1\1\n0094.mhg0\SP\ROProcedureUnspecified\BasisUnspecified\12(2)\yhljason\WedOct2104:10:282020WedOct2104:10:282020\0\\#,ROProcedureUnspecified,BasisUnspecified,\\0,2\P\H,1,1.42798\H,1,1.42798,2,91.5037\\\@

 Total job time:  157.27s(wall), 1237.52s(cpu) 
 Wed Oct 21 04:10:28 2020

        *************************************************************
        *                                                           *
        *  Thank you very much for using Q-Chem.  Have a nice day.  *
        *                                                           *
        *************************************************************


