Q-Chem Developer Version!
                  Welcome to Q-Chem
     A Quantum Leap Into The Future Of Chemistry


 Q-Chem 5.1, Q-Chem, Inc., Pleasanton, CA (2018)

 Yihan Shao,  Zhengting Gan,  E. Epifanovsky,  A. T. B. Gilbert,  M. Wormit,  
 J. Kussmann,  A. W. Lange,  A. Behn,  Jia Deng,  Xintian Feng,  D. Ghosh,  
 M. Goldey,  P. R. Horn,  L. D. Jacobson,  I. Kaliman,  T. Kus,  A. Landau,  
 Jie Liu,  E. I. Proynov,  R. M. Richard,  R. P. Steele,  E. J. Sundstrom,  
 H. L. Woodcock III,  P. M. Zimmerman,  D. Zuev,  B. Albrecht,  E. Alguire,  
 S. A. Baeppler,  D. Barton,  Z. Benda,  Y. A. Bernard,  E. J. Berquist,  
 K. B. Bravaya,  H. Burton,  D. Casanova,  Chun-Min Chang,  Yunqing Chen,  
 A. Chien,  K. D. Closser,  M. P. Coons,  S. Coriani,  S. Dasgupta,  
 A. L. Dempwolff,  M. Diedenhofen,  Hainam Do,  R. G. Edgar,  Po-Tung Fang,  
 S. Faraji,  S. Fatehi,  Qingguo Feng,  K. D. Fenk,  J. Fosso-Tande,  
 Qinghui Ge,  A. Ghysels,  G. Gidofalvi,  J. Gomes,  J. Gonthier,  A. Gunina,  
 D. Hait,  M. W. D. Hanson-Heine,  P. H. P. Harbach,  A. W. Hauser,  
 J. E. Herr,  E. G. Hohenstein,  Z. C. Holden,  Kerwin Hui,  B. C. Huynh,  
 T.-C. Jagau,  Hyunjun Ji,  B. Kaduk,  K. Khistyaev,  Jaehoon Kim,  
 P. Klunzinger,  K. Koh,  D. Kosenkov,  L. Koulias,  T. Kowalczyk,  
 C. M. Krauter,  A. Kunitsa,  Ka Un Lao,  A. Laurent,  K. V. Lawler,  
 Joonho Lee,  D. Lefrancois,  S. Lehtola,  D. S. Levine,  Yi-Pei Li,  
 You-Sheng Lin,  Fenglai Liu,  E. Livshits,  A. Luenser,  P. Manohar,  
 E. Mansoor,  S. F. Manzer,  Shan-Ping Mao,  Yuezhi Mao,  N. Mardirossian,  
 A. V. Marenich,  T. Markovich,  L. A. Martinez-Martinez,  S. A. Maurer,  
 N. J. Mayhall,  S. C. McKenzie,  J.-M. Mewes,  A. F. Morrison,  
 J. W. Mullinax,  K. Nanda,  T. S. Nguyen-Beck,  R. Olivares-Amaya,  
 J. A. Parkhill,  T. M. Perrine,  F. Plasser,  P. Pokhilko,  S. Prager,  
 A. Prociuk,  E. Ramos,  D. R. Rehn,  F. Rob,  M. Schneider,  N. Sergueev,  
 S. M. Sharada,  S. Sharma,  D. W. Small,  T. Stauch,  T. Stein,  
 Yu-Chuan Su,  A. J. W. Thom,  A. Tkatchenko,  T. Tsuchimochi,  N. M. Tubman,  
 L. Vogt,  M. L. Vidal,  O. Vydrov,  M. A. Watson,  J. Wenzel,  
 M. de Wergifosse,  T. A. Wesolowski,  A. White,  J. Witte,  A. Yamada,  
 Jun Yang,  K. Yao,  S. Yeganeh,  S. R. Yost,  Zhi-Qiang You,  A. Zech,  
 Igor Ying Zhang,  Xing Zhang,  Yan Zhao,  Ying Zhu,  B. R. Brooks,  
 G. K. L. Chan,  C. J. Cramer,  M. S. Gordon,  W. J. Hehre,  A. Klamt,  
 M. W. Schmidt,  C. D. Sherrill,  D. G. Truhlar,  A. Aspuru-Guzik,  R. Baer,  
 A. T. Bell,  N. A. Besley,  Jeng-Da Chai,  A. E. DePrince, III,  
 R. A. DiStasio Jr.,  A. Dreuw,  B. D. Dunietz,  T. R. Furlani,  
 Chao-Ping Hsu,  Yousung Jung,  Jing Kong,  D. S. Lambrecht,  WanZhen Liang,  
 C. Ochsenfeld,  V. A. Rassolov,  L. V. Slipchenko,  J. E. Subotnik,  
 T. Van Voorhis,  J. M. Herbert,  A. I. Krylov,  P. M. W. Gill,  M. Head-Gordon

 Contributors to earlier versions of Q-Chem not listed above: 
 R. D. Adamson,  B. Austin,  J. Baker,  G. J. O. Beran,  K. Brandhorst,  
 S. T. Brown,  E. F. C. Byrd,  A. K. Chakraborty,  C.-L. Cheng,  
 Siu Hung Chien,  D. M. Chipman,  D. L. Crittenden,  H. Dachsel,  
 R. J. Doerksen,  A. D. Dutoi,  L. Fusti-Molnar,  W. A. Goddard III,  
 A. Golubeva-Zadorozhnaya,  S. R. Gwaltney,  G. Hawkins,  A. Heyden,  
 S. Hirata,  G. Kedziora,  F. J. Keil,  C. Kelley,  Jihan Kim,  R. A. King,  
 R. Z. Khaliullin,  P. P. Korambath,  W. Kurlancheek,  A. M. Lee,  M. S. Lee,  
 S. V. Levchenko,  Ching Yeh Lin,  D. Liotard,  R. C. Lochan,  I. Lotan,  
 P. E. Maslen,  N. Nair,  D. P. O'Neill,  D. Neuhauser,  E. Neuscamman,  
 C. M. Oana,  R. Olson,  B. Peters,  R. Peverati,  P. A. Pieniazek,  
 Y. M. Rhee,  J. Ritchie,  M. A. Rohrdanz,  E. Rosta,  N. J. Russ,  
 H. F. Schaefer III,  N. E. Schultz,  N. Shenvi,  A. C. Simmonett,  A. Sodt,  
 D. Stuck,  K. S. Thanthiriwatte,  V. Vanovschi,  Tao Wang,  A. Warshel,  
 C. F. Williams,  Q. Wu,  X. Xu,  W. Zhang

 Please cite Q-Chem as follows:
 Y. Shao et al., Mol. Phys. 113, 184-215 (2015)
 DOI: 10.1080/00268976.2014.952696

 Q-Chem 5.1.1 for Intel X86 EM64T Linux

 Parts of Q-Chem use Armadillo 8.300.2 (Tropical Shenanigans).
 http://arma.sourceforge.net/

 Q-Chem begins on Wed Oct 21 03:29:36 2020  

Host: n0095.mhg0
0

     Scratch files written to /local/scratch/users/yhljason/PH3_XYGJOS_aug-cc-pcVTZ.inp20201021032934//
Input Ideriv = 2
Curr. Ideriv = -1
Max.  Ideriv = 2

Checking the input file for inconsistencies... 	...done.

--------------------------------------------------------------
User input:
--------------------------------------------------------------
$molecule
0 1
P1      0.0000  0.0000  0.0000
H2      0.0000  -1.1932 -0.7717
H3      1.0333  0.5966  -0.7717
H4      -1.0333 0.5966  -0.7717
$end

$rem
jobtype sp
exchange XYGJOS
xc_grid 000099000590
basis aug-cc-pcVTZ
aux_basis rimp2-aug-cc-pVTZ
max_scf_cycles 200
thresh 14
scf_convergence 8
scf_algorithm gdm
symmetry false
sym_ignore true
unrestricted false
gen_scfman false
internal_stability_iter 15
internal_stability_davidson_iter 200
mem_total 128000
cc_memory 96000
cc_backend xm
mem_static 1500
n_frozen_core 0
$end



--------------------------------------------------------------
 ----------------------------------------------------------------
             Standard Nuclear Orientation (Angstroms)
    I     Atom           X                Y                Z
 ----------------------------------------------------------------
    1      P       0.0000000000     0.0000000000     0.0000000000
    2      H       0.0000000000    -1.1932000000    -0.7717000000
    3      H       1.0333000000     0.5966000000    -0.7717000000
    4      H      -1.0333000000     0.5966000000    -0.7717000000
 ----------------------------------------------------------------
 Nuclear Repulsion Energy =    17.5262807188 hartrees
 There are        9 alpha and        9 beta electrons
 Requested basis set is aug-cc-pCVTZ
 There are 50 shells and 144 basis functions

 Total QAlloc Memory Limit 128000 MB
 Mega-Array Size      1467 MB
 MEM_STATIC part      1500 MB

                       Distance Matrix (Angstroms)
             P (  1)   H (  2)   H (  3)
   H (  2)  1.421002
   H (  3)  1.420972  2.066662
   H (  4)  1.420972  2.066662  2.066600
 
 Requested basis set is rimp2-aug-cc-pVTZ
 There are 79 shells and 285 basis functions
 A cutoff of  1.0D-14 yielded   1275 shell pairs
 There are     10661 function pairs (     13878 Cartesian)
 
 -------------------------------------------------------
 OpenMP Integral Computing Module                       
 Release: version 1.0, May 2013, Q-Chem Inc. Pittsburgh 
 -------------------------------------------------------
 Integral Job Info:
 Integral job number is                      11
 Integral operator is                         1
 short-range coefficients                     0
 long-range coefficients              100000000
 Omega coefficients                           0
 if combine SR and LR in K                    0
 Integral screening is                        0
 Integral computing path is                   2
 max size of driver memory is            800000
 size of driver memory is                776718
 size of scratch memory is             29531563
 max col of scratch BK array              10000
 max len of scratch array in speh3          662
 max len of scratch index in speh4           32
 max int batch size is                      520
 min int batch size is                       52
 fixed nKL is                                31
 max L of basis functions is                  3
 order of int derivative is                   0
 number of shells is                         50
 number of basis is                         164
 number of cartesian basis is               164
 number of contracted shell pairs          1275
 number of primitive shell pairs           5514
 maxK2 (contraction) of shell pair          169
 max number of K2 of shell pair               1
 max number of CS2 of shell pair            196
 max number of PS2 of shell pair           1014
 mem total for path MDJ                  547738
 -------------------------------------------------------
 Smallest overlap matrix eigenvalue = 1.71E-04

 Scale SEOQF with 1.000000e-01/1.000000e-01/1.000000e-01

 Standard Electronic Orientation quadrupole field applied
 Guess from superposition of atomic densities
 Warning:  Energy on first SCF cycle will be non-variational
 SAD guess density has 18.000000 electrons
 A restricted hybrid HF-DFT SCF calculation will be
 performed using Pulay DIIS + Geometric Direct Minimization
 Exchange:     0.2000 Hartree-Fock + 0.0800 Slater + 0.7200 B88
 Correlation:  0.1900 VWN1RPA + 0.8100 LYP
 Using Euler-Maclaurin-Lebedev (99,590) quadrature formula
 SCF converges when RMS gradient is below 1.0E-08
 using 8 threads for integral computing
 -------------------------------------------------------
 OpenMP Integral computing Module                
 Release: version 2.0, May 2017, Q-Chem Inc. Pleasanton 
 -------------------------------------------------------
TIMEINFO->: J/JK contribution 4.90 sec.
 -------------------------------------------------------
 OpenMP BLAS3 based DFT computing Module                
 Release: version 1.0, May 2013, Q-Chem Inc. Pittsburgh 
 -------------------------------------------------------
 ---------------------------------------
  Cycle       Energy        RMS Gradient
 ---------------------------------------
    1    -343.1081146837      2.13E-02 Done DIIS. Switching to GDM
TIMEINFO->: J/JK contribution 12.45 sec.
    2    -343.1814238273      2.35E-02 Normal BFGS step
TIMEINFO->: J/JK contribution 13.47 sec.
    3    -343.1836715581      1.51E-02 Normal BFGS step
TIMEINFO->: J/JK contribution 13.68 sec.
    4    -343.1856640284      2.64E-03 Normal BFGS step
TIMEINFO->: J/JK contribution 13.62 sec.
    5    -343.1856769874      1.87E-03 Normal BFGS step
TIMEINFO->: J/JK contribution 13.63 sec.
    6    -343.1856898892      6.28E-05 Normal BFGS step
TIMEINFO->: J/JK contribution 13.67 sec.
    7    -343.1856899348      2.44E-05 Normal BFGS step
TIMEINFO->: J/JK contribution 13.70 sec.
    8    -343.1856899416      9.89E-07 Normal BFGS step
TIMEINFO->: J/JK contribution 13.68 sec.
    9    -343.1856899416      3.27E-07 Normal BFGS step
TIMEINFO->: J/JK contribution 13.53 sec.
   10    -343.1856899416      8.48E-09 Convergence criterion met
 ---------------------------------------
 B3LYP orbitals are now ready for the XYGJ-OS calculation.
 XYGJ-OS energy = Exch (0.7731 HF  + 0.2269 Slater) + 
                  Corr (0.2754 LYP + 0.2309 VWN1RPA + 0.4364 OS-MP2)
 SCF time:  CPU 187.25 s  wall 23.57 s
 SCF   energy in the final basis set = -342.61101660
 Total energy in the final basis set = -342.61101660
 Entering Scaled Opposite Spin MP2
 NBasAux in rimp2.F =          285

 OS-MP2 job begins now...

 SOS scaling factor =  0.4
 Form (P|Q)**(-1/2)...
 
 Form (ia|P)...
 Form BiaQ = (ia|P)*(P|Q)**(-1/2)...
 Laplace quadrature loop begins
 Laplace point 1: correlation energy     =        -0.1624780566
 Laplace point 2: correlation energy     =        -0.1238289299
 Laplace point 3: correlation energy     =        -0.0781223735
 Laplace point 4: correlation energy     =        -0.0670280526
 Laplace point 5: correlation energy     =        -0.0297393553
 Laplace point 6: correlation energy     =        -0.0037189062
 Laplace point 7: correlation energy     =        -0.0000551292
 
 singles contribution not yet available for XYGJ-OS 
 Total OS-MP2 correlation energy         =        -0.4649708033

 Total XYGJ-OS energy                    =      -342.8139298604
 
 ------------------------------------------------------------------------------
                     SOSMP2        : Timing summary (seconds)
 ------------------------------------------------------------------------------
     job step          cpu (% of tot)      sys (% of tot)     wall (% of tot)
 ------------------------------------------------------------------------------
  Form inv (P|Q)    0.6012E+00 ( 7.8)   0.0000E+00 ( 0.0)   0.7574E-01 ( 7.8)
  Form (ia|P)       0.4532E+01 (58.5)   0.1800E-04 (56.2)   0.5701E+00 (58.5)
  Form  BiaQ        0.3005E+00 ( 3.9)   0.2000E-05 ( 6.2)   0.3779E-01 ( 3.9)
  LP orbitals       0.3488E+00 ( 4.5)   0.1000E-05 ( 3.1)   0.4392E-01 ( 4.5)
  Form  X(PQ)       0.1437E+01 (18.6)   0.1000E-04 (31.3)   0.1804E+00 (18.5)
  Increment EMP2    0.4028E+00 ( 5.2)   0.1000E-05 ( 3.1)   0.5063E-01 ( 5.2)
 ------------------------------------------------------------------------------
   Grand Totals     0.7746E+01          0.3200E-04          0.9740E+00
 ------------------------------------------------------------------------------
 
 --------------------------------------------------------------
 
                    Orbital Energies (a.u.)
 --------------------------------------------------------------
 
 Alpha MOs
 -- Occupied --
-77.054  -6.548  -4.709  -4.709  -4.705  -0.648  -0.388  -0.388
 -0.282
 -- Virtual --
 -0.016   0.009   0.009   0.025   0.025   0.041   0.076   0.089
  0.089   0.100   0.100   0.102   0.197   0.197   0.204   0.234
  0.234   0.245   0.252   0.252   0.255   0.289   0.289   0.289
  0.399   0.399   0.402   0.483   0.483   0.496   0.497   0.532
  0.581   0.581   0.614   0.626   0.626   0.643   0.643   0.705
  0.776   0.776   0.820   0.832   0.853   0.853   0.881   0.881
  0.891   0.986   0.986   1.003   1.041   1.041   1.058   1.058
  1.106   1.131   1.304   1.304   1.315   1.350   1.351   1.351
  1.426   1.426   1.502   1.540   1.540   1.631   1.683   1.855
  1.855   1.916   1.999   1.999   2.036   2.118   2.118   2.249
  2.471   2.471   2.846   3.148   3.148   3.374   3.611   3.611
  3.623   3.684   3.684   3.817   3.817   3.821   3.899   3.950
  4.090   4.090   4.147   4.166   4.166   4.202   4.317   4.317
  4.342   4.435   4.435   4.851   4.851   5.076   7.079   7.079
  7.087   7.921   7.921   9.801   9.970   9.970  12.417  26.284
 26.291  26.298  26.298  26.304  26.306  26.306  32.543  32.543
 32.550  32.949  32.949  41.164  41.348  41.348  71.353
 --------------------------------------------------------------
 
          Ground-State Mulliken Net Atomic Charges

     Atom                 Charge (a.u.)
  ----------------------------------------
      1 P                    -0.163374
      2 H                     0.054448
      3 H                     0.054463
      4 H                     0.054463
  ----------------------------------------
  Sum of atomic charges =    -0.000000

 -----------------------------------------------------------------
                    Cartesian Multipole Moments
 -----------------------------------------------------------------
    Charge (ESU x 10^10)
                -0.0000
    Dipole Moment (Debye)
         X      -0.0000      Y       0.0000      Z      -0.5648
       Tot       0.5648
    Quadrupole Moments (Debye-Ang)
        XX     -14.8777     XY      -0.0000     YY     -14.8776
        XZ       0.0000     YZ      -0.0000     ZZ     -16.9411
    Octopole Moments (Debye-Ang^2)
       XXX      -0.0000    XXY      -0.0058    XYY      -0.0000
       YYY       0.0059    XXZ       1.7323    XYZ       0.0000
       YYZ       1.7323    XZZ      -0.0000    YZZ       0.0001
       ZZZ       5.6168
    Hexadecapole Moments (Debye-Ang^3)
      XXXX     -31.9902   XXXY      -0.0000   XXYY     -10.6635
      XYYY      -0.0000   YYYY     -31.9910   XXXZ       0.0000
      XXYZ      -0.5539   XYYZ       0.0000   YYYZ       0.5537
      XXZZ     -11.4082   XYZZ      -0.0000   YYZZ     -11.4083
      XZZZ       0.0000   YZZZ      -0.0001   ZZZZ     -38.4058
 -----------------------------------------------------------------
Archival summary:
1\1\n0095.mhg0\SP\ProcedureUnspecified\BasisUnspecified\13\yhljason\WedOct2103:30:022020WedOct2103:30:022020\0\\#,ProcedureUnspecified,BasisUnspecified,\\0,1\P\H,1,1.42097\H,1,1.42097,2,93.3007\H,1,1.421,2,93.3031,3,-93.5051,0\\\@

 Total job time:  25.24s(wall), 199.55s(cpu) 
 Wed Oct 21 03:30:02 2020

        *************************************************************
        *                                                           *
        *  Thank you very much for using Q-Chem.  Have a nice day.  *
        *                                                           *
        *************************************************************


 
User input: 2 of 7 
 
Q-Chem Developer Version!
                  Welcome to Q-Chem
     A Quantum Leap Into The Future Of Chemistry


 Q-Chem 5.1, Q-Chem, Inc., Pleasanton, CA (2018)

 Yihan Shao,  Zhengting Gan,  E. Epifanovsky,  A. T. B. Gilbert,  M. Wormit,  
 J. Kussmann,  A. W. Lange,  A. Behn,  Jia Deng,  Xintian Feng,  D. Ghosh,  
 M. Goldey,  P. R. Horn,  L. D. Jacobson,  I. Kaliman,  T. Kus,  A. Landau,  
 Jie Liu,  E. I. Proynov,  R. M. Richard,  R. P. Steele,  E. J. Sundstrom,  
 H. L. Woodcock III,  P. M. Zimmerman,  D. Zuev,  B. Albrecht,  E. Alguire,  
 S. A. Baeppler,  D. Barton,  Z. Benda,  Y. A. Bernard,  E. J. Berquist,  
 K. B. Bravaya,  H. Burton,  D. Casanova,  Chun-Min Chang,  Yunqing Chen,  
 A. Chien,  K. D. Closser,  M. P. Coons,  S. Coriani,  S. Dasgupta,  
 A. L. Dempwolff,  M. Diedenhofen,  Hainam Do,  R. G. Edgar,  Po-Tung Fang,  
 S. Faraji,  S. Fatehi,  Qingguo Feng,  K. D. Fenk,  J. Fosso-Tande,  
 Qinghui Ge,  A. Ghysels,  G. Gidofalvi,  J. Gomes,  J. Gonthier,  A. Gunina,  
 D. Hait,  M. W. D. Hanson-Heine,  P. H. P. Harbach,  A. W. Hauser,  
 J. E. Herr,  E. G. Hohenstein,  Z. C. Holden,  Kerwin Hui,  B. C. Huynh,  
 T.-C. Jagau,  Hyunjun Ji,  B. Kaduk,  K. Khistyaev,  Jaehoon Kim,  
 P. Klunzinger,  K. Koh,  D. Kosenkov,  L. Koulias,  T. Kowalczyk,  
 C. M. Krauter,  A. Kunitsa,  Ka Un Lao,  A. Laurent,  K. V. Lawler,  
 Joonho Lee,  D. Lefrancois,  S. Lehtola,  D. S. Levine,  Yi-Pei Li,  
 You-Sheng Lin,  Fenglai Liu,  E. Livshits,  A. Luenser,  P. Manohar,  
 E. Mansoor,  S. F. Manzer,  Shan-Ping Mao,  Yuezhi Mao,  N. Mardirossian,  
 A. V. Marenich,  T. Markovich,  L. A. Martinez-Martinez,  S. A. Maurer,  
 N. J. Mayhall,  S. C. McKenzie,  J.-M. Mewes,  A. F. Morrison,  
 J. W. Mullinax,  K. Nanda,  T. S. Nguyen-Beck,  R. Olivares-Amaya,  
 J. A. Parkhill,  T. M. Perrine,  F. Plasser,  P. Pokhilko,  S. Prager,  
 A. Prociuk,  E. Ramos,  D. R. Rehn,  F. Rob,  M. Schneider,  N. Sergueev,  
 S. M. Sharada,  S. Sharma,  D. W. Small,  T. Stauch,  T. Stein,  
 Yu-Chuan Su,  A. J. W. Thom,  A. Tkatchenko,  T. Tsuchimochi,  N. M. Tubman,  
 L. Vogt,  M. L. Vidal,  O. Vydrov,  M. A. Watson,  J. Wenzel,  
 M. de Wergifosse,  T. A. Wesolowski,  A. White,  J. Witte,  A. Yamada,  
 Jun Yang,  K. Yao,  S. Yeganeh,  S. R. Yost,  Zhi-Qiang You,  A. Zech,  
 Igor Ying Zhang,  Xing Zhang,  Yan Zhao,  Ying Zhu,  B. R. Brooks,  
 G. K. L. Chan,  C. J. Cramer,  M. S. Gordon,  W. J. Hehre,  A. Klamt,  
 M. W. Schmidt,  C. D. Sherrill,  D. G. Truhlar,  A. Aspuru-Guzik,  R. Baer,  
 A. T. Bell,  N. A. Besley,  Jeng-Da Chai,  A. E. DePrince, III,  
 R. A. DiStasio Jr.,  A. Dreuw,  B. D. Dunietz,  T. R. Furlani,  
 Chao-Ping Hsu,  Yousung Jung,  Jing Kong,  D. S. Lambrecht,  WanZhen Liang,  
 C. Ochsenfeld,  V. A. Rassolov,  L. V. Slipchenko,  J. E. Subotnik,  
 T. Van Voorhis,  J. M. Herbert,  A. I. Krylov,  P. M. W. Gill,  M. Head-Gordon

 Contributors to earlier versions of Q-Chem not listed above: 
 R. D. Adamson,  B. Austin,  J. Baker,  G. J. O. Beran,  K. Brandhorst,  
 S. T. Brown,  E. F. C. Byrd,  A. K. Chakraborty,  C.-L. Cheng,  
 Siu Hung Chien,  D. M. Chipman,  D. L. Crittenden,  H. Dachsel,  
 R. J. Doerksen,  A. D. Dutoi,  L. Fusti-Molnar,  W. A. Goddard III,  
 A. Golubeva-Zadorozhnaya,  S. R. Gwaltney,  G. Hawkins,  A. Heyden,  
 S. Hirata,  G. Kedziora,  F. J. Keil,  C. Kelley,  Jihan Kim,  R. A. King,  
 R. Z. Khaliullin,  P. P. Korambath,  W. Kurlancheek,  A. M. Lee,  M. S. Lee,  
 S. V. Levchenko,  Ching Yeh Lin,  D. Liotard,  R. C. Lochan,  I. Lotan,  
 P. E. Maslen,  N. Nair,  D. P. O'Neill,  D. Neuhauser,  E. Neuscamman,  
 C. M. Oana,  R. Olson,  B. Peters,  R. Peverati,  P. A. Pieniazek,  
 Y. M. Rhee,  J. Ritchie,  M. A. Rohrdanz,  E. Rosta,  N. J. Russ,  
 H. F. Schaefer III,  N. E. Schultz,  N. Shenvi,  A. C. Simmonett,  A. Sodt,  
 D. Stuck,  K. S. Thanthiriwatte,  V. Vanovschi,  Tao Wang,  A. Warshel,  
 C. F. Williams,  Q. Wu,  X. Xu,  W. Zhang

 Please cite Q-Chem as follows:
 Y. Shao et al., Mol. Phys. 113, 184-215 (2015)
 DOI: 10.1080/00268976.2014.952696

 Q-Chem 5.1.1 for Intel X86 EM64T Linux

 Parts of Q-Chem use Armadillo 8.300.2 (Tropical Shenanigans).
 http://arma.sourceforge.net/

 Q-Chem begins on Wed Oct 21 03:30:02 2020  

Host: n0095.mhg0
0

     Scratch files written to /local/scratch/users/yhljason/PH3_XYGJOS_aug-cc-pcVTZ.inp20201021032934//
The previous job contains 0 fragments, simply inherited here
Input Ideriv = 2
Curr. Ideriv = -1
Max.  Ideriv = 2

Checking the input file for inconsistencies... 	...done.

--------------------------------------------------------------
User input:
--------------------------------------------------------------
$molecule
read
$end

$rem

jobtype sp
exchange XYGJOS
xc_grid 000099000590
basis aug-cc-pcVTZ
aux_basis rimp2-aug-cc-pVTZ
max_scf_cycles 200
thresh 14
scf_convergence 8
mem_total 128000
cc_memory 96000
cc_backend xm
mem_static 1500
symmetry false
sym_ignore true
scf_guess read
unrestricted false
scf_algorithm gdm
n_frozen_core 0
$end

$multipole_field
XX 0.0001
$end


--------------------------------------------------------------
 ----------------------------------------------------------------
             Standard Nuclear Orientation (Angstroms)
    I     Atom           X                Y                Z
 ----------------------------------------------------------------
    1      P       0.0000000000     0.0000000000     0.0000000000
    2      H       0.0000000000    -1.1932000000    -0.7717000000
    3      H       1.0333000000     0.5966000000    -0.7717000000
    4      H      -1.0333000000     0.5966000000    -0.7717000000
 ----------------------------------------------------------------
 Nuclear Repulsion Energy =    17.5262807188 hartrees
 There are        9 alpha and        9 beta electrons
 Requested basis set is aug-cc-pCVTZ
 There are 50 shells and 144 basis functions

 Total QAlloc Memory Limit 128000 MB
 Mega-Array Size      1467 MB
 MEM_STATIC part      1500 MB

                       Distance Matrix (Angstroms)
             P (  1)   H (  2)   H (  3)
   H (  2)  1.421002
   H (  3)  1.420972  2.066662
   H (  4)  1.420972  2.066662  2.066600
 
 Applying Cartesian multipole field
    Component          Value
    ---------          -----
     (2,0,0)        1.00000E-04
 Nucleus-field energy     =     0.0007625715 hartrees
 Requested basis set is rimp2-aug-cc-pVTZ
 There are 79 shells and 285 basis functions
 A cutoff of  1.0D-14 yielded   1275 shell pairs
 There are     10661 function pairs (     13878 Cartesian)
 
 -------------------------------------------------------
 OpenMP Integral Computing Module                       
 Release: version 1.0, May 2013, Q-Chem Inc. Pittsburgh 
 -------------------------------------------------------
 Integral Job Info:
 Integral job number is                      11
 Integral operator is                         1
 short-range coefficients                     0
 long-range coefficients              100000000
 Omega coefficients                           0
 if combine SR and LR in K                    0
 Integral screening is                        0
 Integral computing path is                   2
 max size of driver memory is            800000
 size of driver memory is                776718
 size of scratch memory is             29531563
 max col of scratch BK array              10000
 max len of scratch array in speh3          662
 max len of scratch index in speh4           32
 max int batch size is                      520
 min int batch size is                       52
 fixed nKL is                                31
 max L of basis functions is                  3
 order of int derivative is                   0
 number of shells is                         50
 number of basis is                         164
 number of cartesian basis is               164
 number of contracted shell pairs          1275
 number of primitive shell pairs           5514
 maxK2 (contraction) of shell pair          169
 max number of K2 of shell pair               1
 max number of CS2 of shell pair            196
 max number of PS2 of shell pair           1014
 mem total for path MDJ                  547738
 -------------------------------------------------------
 Smallest overlap matrix eigenvalue = 1.71E-04
 Guess MOs from SCF MO coefficient file
 Reading MOs from coefficient file
 Reading MOs from coefficient file
 A restricted hybrid HF-DFT SCF calculation will be
 performed using Geometric Direct Minimization
 Exchange:     0.2000 Hartree-Fock + 0.0800 Slater + 0.7200 B88
 Correlation:  0.1900 VWN1RPA + 0.8100 LYP
 Using Euler-Maclaurin-Lebedev (99,590) quadrature formula
 SCF converges when RMS gradient is below 1.0E-08
Using Q-Chem read-in guess as SCF_GUESS READ specified.

 using 8 threads for integral computing
 -------------------------------------------------------
 OpenMP Integral computing Module                
 Release: version 2.0, May 2017, Q-Chem Inc. Pleasanton 
 -------------------------------------------------------
TIMEINFO->: J/JK contribution 13.76 sec.
 -------------------------------------------------------
 OpenMP BLAS3 based DFT computing Module                
 Release: version 1.0, May 2013, Q-Chem Inc. Pittsburgh 
 -------------------------------------------------------
 ---------------------------------------
  Cycle       Energy        RMS Gradient
 ---------------------------------------
    1    -343.1867960612      3.94E-04 Normal BFGS step
TIMEINFO->: J/JK contribution 13.94 sec.
    2    -343.1867968256      1.36E-04 Normal BFGS step
TIMEINFO->: J/JK contribution 13.75 sec.
    3    -343.1867969486      4.82E-05 Normal BFGS step
TIMEINFO->: J/JK contribution 13.59 sec.
    4    -343.1867969643      1.46E-05 Normal BFGS step
TIMEINFO->: J/JK contribution 13.88 sec.
    5    -343.1867969653      5.96E-06 Normal BFGS step
TIMEINFO->: J/JK contribution 13.82 sec.
    6    -343.1867969655      6.59E-07 Normal BFGS step
TIMEINFO->: J/JK contribution 13.74 sec.
    7    -343.1867969655      1.38E-07 Normal BFGS step
TIMEINFO->: J/JK contribution 13.43 sec.
   GDM::WARNING energy changes are now smaller than effective accuracy.
   GDM::        calculation will continue, but THRESH should be increased
   GDM::        or SCF_CONVERGENCE decreased.
   GDM::        effective_thresh =   9.000000000000000E-011
    8    -343.1867969655      1.95E-08 Normal BFGS step
TIMEINFO->: J/JK contribution 13.51 sec.
    9    -343.1867969655      1.17E-08 Normal BFGS step
TIMEINFO->: J/JK contribution 12.95 sec.
   GDM::WARNING energy changes are now smaller than effective accuracy.
   GDM::        calculation will continue, but THRESH should be increased
   GDM::        or SCF_CONVERGENCE decreased.
   GDM::        effective_thresh =   9.000000000000000E-011
   10    -343.1867969655      4.11E-09 Convergence criterion met
 ---------------------------------------
 B3LYP orbitals are now ready for the XYGJ-OS calculation.
 XYGJ-OS energy = Exch (0.7731 HF  + 0.2269 Slater) + 
                  Corr (0.2754 LYP + 0.2309 VWN1RPA + 0.4364 OS-MP2)
 SCF time:  CPU 198.96 s  wall 25.03 s
 SCF   energy in the final basis set = -342.61211794
 Total energy in the final basis set = -342.61211794
 Entering Scaled Opposite Spin MP2
 NBasAux in rimp2.F =          285

 OS-MP2 job begins now...

 SOS scaling factor =  0.4
 Form (P|Q)**(-1/2)...
 
 Form (ia|P)...
 Form BiaQ = (ia|P)*(P|Q)**(-1/2)...
 Laplace quadrature loop begins
 Laplace point 1: correlation energy     =        -0.1624754916
 Laplace point 2: correlation energy     =        -0.1238241224
 Laplace point 3: correlation energy     =        -0.0781170406
 Laplace point 4: correlation energy     =        -0.0670302263
 Laplace point 5: correlation energy     =        -0.0297477938
 Laplace point 6: correlation energy     =        -0.0037224923
 Laplace point 7: correlation energy     =        -0.0000553117
 
 singles contribution not yet available for XYGJ-OS 
 Total OS-MP2 correlation energy         =        -0.4649724787

 Total XYGJ-OS energy                    =      -342.8150319273
 
 ------------------------------------------------------------------------------
                     SOSMP2        : Timing summary (seconds)
 ------------------------------------------------------------------------------
     job step          cpu (% of tot)      sys (% of tot)     wall (% of tot)
 ------------------------------------------------------------------------------
  Form inv (P|Q)    0.5999E+00 ( 7.9)   0.4000E-05 (14.8)   0.7545E-01 ( 7.9)
  Form (ia|P)       0.4488E+01 (59.0)   0.1800E-04 (66.7)   0.5646E+00 (58.8)
  Form  BiaQ        0.2682E+00 ( 3.5)   0.1000E-05 ( 3.7)   0.3364E-01 ( 3.5)
  LP orbitals       0.3375E+00 ( 4.4)   0.0000E+00 ( 0.0)   0.4245E-01 ( 4.4)
  Form  X(PQ)       0.1441E+01 (18.9)   0.4000E-05 (14.8)   0.1809E+00 (18.8)
  Increment EMP2    0.3618E+00 ( 4.8)   0.0000E+00 ( 0.0)   0.4825E-01 ( 5.0)
 ------------------------------------------------------------------------------
   Grand Totals     0.7612E+01          0.2700E-04          0.9600E+00
 ------------------------------------------------------------------------------
 
 --------------------------------------------------------------
 
                    Orbital Energies (a.u.)
 --------------------------------------------------------------
 
 Alpha MOs
 -- Occupied --
-77.054  -6.548  -4.709  -4.709  -4.705  -0.648  -0.389  -0.388
 -0.282
 -- Virtual --
 -0.018   0.007   0.008   0.021   0.023   0.040   0.073   0.086
  0.088   0.099   0.099   0.102   0.194   0.196   0.203   0.233
  0.233   0.244   0.251   0.252   0.253   0.287   0.287   0.288
  0.399   0.399   0.401   0.481   0.482   0.495   0.496   0.531
  0.580   0.580   0.613   0.625   0.625   0.642   0.642   0.704
  0.775   0.775   0.819   0.831   0.852   0.853   0.880   0.880
  0.890   0.986   0.986   1.003   1.040   1.040   1.057   1.057
  1.105   1.130   1.303   1.303   1.314   1.349   1.351   1.351
  1.425   1.425   1.501   1.539   1.539   1.631   1.682   1.854
  1.855   1.916   1.999   1.999   2.036   2.117   2.117   2.248
  2.471   2.471   2.845   3.148   3.148   3.374   3.611   3.611
  3.623   3.683   3.683   3.817   3.817   3.820   3.898   3.950
  4.089   4.089   4.147   4.165   4.165   4.201   4.317   4.317
  4.342   4.434   4.434   4.850   4.851   5.076   7.078   7.078
  7.087   7.920   7.920   9.801   9.970   9.970  12.417  26.284
 26.290  26.297  26.297  26.304  26.305  26.305  32.543  32.543
 32.550  32.949  32.949  41.164  41.348  41.348  71.353
 --------------------------------------------------------------
 
          Ground-State Mulliken Net Atomic Charges

     Atom                 Charge (a.u.)
  ----------------------------------------
      1 P                    -0.162873
      2 H                     0.055255
      3 H                     0.053809
      4 H                     0.053809
  ----------------------------------------
  Sum of atomic charges =    -0.000000

 -----------------------------------------------------------------
                    Cartesian Multipole Moments
 -----------------------------------------------------------------
    Charge (ESU x 10^10)
                -0.0000
    Dipole Moment (Debye)
         X      -0.0000      Y      -0.0023      Z      -0.5632
       Tot       0.5632
    Quadrupole Moments (Debye-Ang)
        XX     -14.9020     XY      -0.0000     YY     -14.8778
        XZ       0.0000     YZ       0.0016     ZZ     -16.9442
    Octopole Moments (Debye-Ang^2)
       XXX      -0.0000    XXY      -0.0153    XYY      -0.0000
       YYY      -0.0002    XXZ       1.7442    XYZ       0.0000
       YYZ       1.7329    XZZ      -0.0000    YZZ      -0.0031
       ZZZ       5.6224
    Hexadecapole Moments (Debye-Ang^3)
      XXXX     -32.1147   XXXY      -0.0000   XXYY     -10.6854
      XYYY      -0.0000   YYYY     -31.9947   XXXZ       0.0000
      XXYZ      -0.5465   XYYZ       0.0000   YYYZ       0.5582
      XXZZ     -11.4392   XYZZ      -0.0000   YYZZ     -11.4119
      XZZZ       0.0000   YZZZ       0.0036   ZZZZ     -38.4305
 -----------------------------------------------------------------
Archival summary:
1\1\n0095.mhg0\SP\ProcedureUnspecified\BasisUnspecified\13\yhljason\WedOct2103:30:282020WedOct2103:30:282020\0\\#,ProcedureUnspecified,BasisUnspecified,\\0,1\P\H,1,1.42097\H,1,1.42097,2,93.3007\H,1,1.421,2,93.3031,3,-93.5051,0\\\@

 Total job time:  26.67s(wall), 211.37s(cpu) 
 Wed Oct 21 03:30:28 2020

        *************************************************************
        *                                                           *
        *  Thank you very much for using Q-Chem.  Have a nice day.  *
        *                                                           *
        *************************************************************


 
User input: 3 of 7 
 
Q-Chem Developer Version!
                  Welcome to Q-Chem
     A Quantum Leap Into The Future Of Chemistry


 Q-Chem 5.1, Q-Chem, Inc., Pleasanton, CA (2018)

 Yihan Shao,  Zhengting Gan,  E. Epifanovsky,  A. T. B. Gilbert,  M. Wormit,  
 J. Kussmann,  A. W. Lange,  A. Behn,  Jia Deng,  Xintian Feng,  D. Ghosh,  
 M. Goldey,  P. R. Horn,  L. D. Jacobson,  I. Kaliman,  T. Kus,  A. Landau,  
 Jie Liu,  E. I. Proynov,  R. M. Richard,  R. P. Steele,  E. J. Sundstrom,  
 H. L. Woodcock III,  P. M. Zimmerman,  D. Zuev,  B. Albrecht,  E. Alguire,  
 S. A. Baeppler,  D. Barton,  Z. Benda,  Y. A. Bernard,  E. J. Berquist,  
 K. B. Bravaya,  H. Burton,  D. Casanova,  Chun-Min Chang,  Yunqing Chen,  
 A. Chien,  K. D. Closser,  M. P. Coons,  S. Coriani,  S. Dasgupta,  
 A. L. Dempwolff,  M. Diedenhofen,  Hainam Do,  R. G. Edgar,  Po-Tung Fang,  
 S. Faraji,  S. Fatehi,  Qingguo Feng,  K. D. Fenk,  J. Fosso-Tande,  
 Qinghui Ge,  A. Ghysels,  G. Gidofalvi,  J. Gomes,  J. Gonthier,  A. Gunina,  
 D. Hait,  M. W. D. Hanson-Heine,  P. H. P. Harbach,  A. W. Hauser,  
 J. E. Herr,  E. G. Hohenstein,  Z. C. Holden,  Kerwin Hui,  B. C. Huynh,  
 T.-C. Jagau,  Hyunjun Ji,  B. Kaduk,  K. Khistyaev,  Jaehoon Kim,  
 P. Klunzinger,  K. Koh,  D. Kosenkov,  L. Koulias,  T. Kowalczyk,  
 C. M. Krauter,  A. Kunitsa,  Ka Un Lao,  A. Laurent,  K. V. Lawler,  
 Joonho Lee,  D. Lefrancois,  S. Lehtola,  D. S. Levine,  Yi-Pei Li,  
 You-Sheng Lin,  Fenglai Liu,  E. Livshits,  A. Luenser,  P. Manohar,  
 E. Mansoor,  S. F. Manzer,  Shan-Ping Mao,  Yuezhi Mao,  N. Mardirossian,  
 A. V. Marenich,  T. Markovich,  L. A. Martinez-Martinez,  S. A. Maurer,  
 N. J. Mayhall,  S. C. McKenzie,  J.-M. Mewes,  A. F. Morrison,  
 J. W. Mullinax,  K. Nanda,  T. S. Nguyen-Beck,  R. Olivares-Amaya,  
 J. A. Parkhill,  T. M. Perrine,  F. Plasser,  P. Pokhilko,  S. Prager,  
 A. Prociuk,  E. Ramos,  D. R. Rehn,  F. Rob,  M. Schneider,  N. Sergueev,  
 S. M. Sharada,  S. Sharma,  D. W. Small,  T. Stauch,  T. Stein,  
 Yu-Chuan Su,  A. J. W. Thom,  A. Tkatchenko,  T. Tsuchimochi,  N. M. Tubman,  
 L. Vogt,  M. L. Vidal,  O. Vydrov,  M. A. Watson,  J. Wenzel,  
 M. de Wergifosse,  T. A. Wesolowski,  A. White,  J. Witte,  A. Yamada,  
 Jun Yang,  K. Yao,  S. Yeganeh,  S. R. Yost,  Zhi-Qiang You,  A. Zech,  
 Igor Ying Zhang,  Xing Zhang,  Yan Zhao,  Ying Zhu,  B. R. Brooks,  
 G. K. L. Chan,  C. J. Cramer,  M. S. Gordon,  W. J. Hehre,  A. Klamt,  
 M. W. Schmidt,  C. D. Sherrill,  D. G. Truhlar,  A. Aspuru-Guzik,  R. Baer,  
 A. T. Bell,  N. A. Besley,  Jeng-Da Chai,  A. E. DePrince, III,  
 R. A. DiStasio Jr.,  A. Dreuw,  B. D. Dunietz,  T. R. Furlani,  
 Chao-Ping Hsu,  Yousung Jung,  Jing Kong,  D. S. Lambrecht,  WanZhen Liang,  
 C. Ochsenfeld,  V. A. Rassolov,  L. V. Slipchenko,  J. E. Subotnik,  
 T. Van Voorhis,  J. M. Herbert,  A. I. Krylov,  P. M. W. Gill,  M. Head-Gordon

 Contributors to earlier versions of Q-Chem not listed above: 
 R. D. Adamson,  B. Austin,  J. Baker,  G. J. O. Beran,  K. Brandhorst,  
 S. T. Brown,  E. F. C. Byrd,  A. K. Chakraborty,  C.-L. Cheng,  
 Siu Hung Chien,  D. M. Chipman,  D. L. Crittenden,  H. Dachsel,  
 R. J. Doerksen,  A. D. Dutoi,  L. Fusti-Molnar,  W. A. Goddard III,  
 A. Golubeva-Zadorozhnaya,  S. R. Gwaltney,  G. Hawkins,  A. Heyden,  
 S. Hirata,  G. Kedziora,  F. J. Keil,  C. Kelley,  Jihan Kim,  R. A. King,  
 R. Z. Khaliullin,  P. P. Korambath,  W. Kurlancheek,  A. M. Lee,  M. S. Lee,  
 S. V. Levchenko,  Ching Yeh Lin,  D. Liotard,  R. C. Lochan,  I. Lotan,  
 P. E. Maslen,  N. Nair,  D. P. O'Neill,  D. Neuhauser,  E. Neuscamman,  
 C. M. Oana,  R. Olson,  B. Peters,  R. Peverati,  P. A. Pieniazek,  
 Y. M. Rhee,  J. Ritchie,  M. A. Rohrdanz,  E. Rosta,  N. J. Russ,  
 H. F. Schaefer III,  N. E. Schultz,  N. Shenvi,  A. C. Simmonett,  A. Sodt,  
 D. Stuck,  K. S. Thanthiriwatte,  V. Vanovschi,  Tao Wang,  A. Warshel,  
 C. F. Williams,  Q. Wu,  X. Xu,  W. Zhang

 Please cite Q-Chem as follows:
 Y. Shao et al., Mol. Phys. 113, 184-215 (2015)
 DOI: 10.1080/00268976.2014.952696

 Q-Chem 5.1.1 for Intel X86 EM64T Linux

 Parts of Q-Chem use Armadillo 8.300.2 (Tropical Shenanigans).
 http://arma.sourceforge.net/

 Q-Chem begins on Wed Oct 21 03:30:29 2020  

Host: n0095.mhg0
0

     Scratch files written to /local/scratch/users/yhljason/PH3_XYGJOS_aug-cc-pcVTZ.inp20201021032934//
The previous job contains 0 fragments, simply inherited here
Input Ideriv = 2
Curr. Ideriv = -1
Max.  Ideriv = 2

Checking the input file for inconsistencies... 	...done.

--------------------------------------------------------------
User input:
--------------------------------------------------------------
$molecule
read
$end

$rem

jobtype sp
exchange XYGJOS
xc_grid 000099000590
basis aug-cc-pcVTZ
aux_basis rimp2-aug-cc-pVTZ
max_scf_cycles 200
thresh 14
scf_convergence 8
mem_total 128000
cc_memory 96000
cc_backend xm
mem_static 1500
symmetry false
sym_ignore true
scf_guess read
unrestricted false
scf_algorithm gdm
n_frozen_core 0
$end

$multipole_field
XX -0.0001
$end


--------------------------------------------------------------
 ----------------------------------------------------------------
             Standard Nuclear Orientation (Angstroms)
    I     Atom           X                Y                Z
 ----------------------------------------------------------------
    1      P       0.0000000000     0.0000000000     0.0000000000
    2      H       0.0000000000    -1.1932000000    -0.7717000000
    3      H       1.0333000000     0.5966000000    -0.7717000000
    4      H      -1.0333000000     0.5966000000    -0.7717000000
 ----------------------------------------------------------------
 Nuclear Repulsion Energy =    17.5262807188 hartrees
 There are        9 alpha and        9 beta electrons
 Requested basis set is aug-cc-pCVTZ
 There are 50 shells and 144 basis functions

 Total QAlloc Memory Limit 128000 MB
 Mega-Array Size      1467 MB
 MEM_STATIC part      1500 MB

                       Distance Matrix (Angstroms)
             P (  1)   H (  2)   H (  3)
   H (  2)  1.421002
   H (  3)  1.420972  2.066662
   H (  4)  1.420972  2.066662  2.066600
 
 Applying Cartesian multipole field
    Component          Value
    ---------          -----
     (2,0,0)       -1.00000E-04
 Nucleus-field energy     =    -0.0007625715 hartrees
 Requested basis set is rimp2-aug-cc-pVTZ
 There are 79 shells and 285 basis functions
 A cutoff of  1.0D-14 yielded   1275 shell pairs
 There are     10661 function pairs (     13878 Cartesian)
 
 -------------------------------------------------------
 OpenMP Integral Computing Module                       
 Release: version 1.0, May 2013, Q-Chem Inc. Pittsburgh 
 -------------------------------------------------------
 Integral Job Info:
 Integral job number is                      11
 Integral operator is                         1
 short-range coefficients                     0
 long-range coefficients              100000000
 Omega coefficients                           0
 if combine SR and LR in K                    0
 Integral screening is                        0
 Integral computing path is                   2
 max size of driver memory is            800000
 size of driver memory is                776718
 size of scratch memory is             29531563
 max col of scratch BK array              10000
 max len of scratch array in speh3          662
 max len of scratch index in speh4           32
 max int batch size is                      520
 min int batch size is                       52
 fixed nKL is                                31
 max L of basis functions is                  3
 order of int derivative is                   0
 number of shells is                         50
 number of basis is                         164
 number of cartesian basis is               164
 number of contracted shell pairs          1275
 number of primitive shell pairs           5514
 maxK2 (contraction) of shell pair          169
 max number of K2 of shell pair               1
 max number of CS2 of shell pair            196
 max number of PS2 of shell pair           1014
 mem total for path MDJ                  547738
 -------------------------------------------------------
 Smallest overlap matrix eigenvalue = 1.71E-04
 Guess MOs from SCF MO coefficient file
 Reading MOs from coefficient file
 Reading MOs from coefficient file
 A restricted hybrid HF-DFT SCF calculation will be
 performed using Geometric Direct Minimization
 Exchange:     0.2000 Hartree-Fock + 0.0800 Slater + 0.7200 B88
 Correlation:  0.1900 VWN1RPA + 0.8100 LYP
 Using Euler-Maclaurin-Lebedev (99,590) quadrature formula
 SCF converges when RMS gradient is below 1.0E-08
Using Q-Chem read-in guess as SCF_GUESS READ specified.

 using 8 threads for integral computing
 -------------------------------------------------------
 OpenMP Integral computing Module                
 Release: version 2.0, May 2017, Q-Chem Inc. Pleasanton 
 -------------------------------------------------------
TIMEINFO->: J/JK contribution 13.87 sec.
 -------------------------------------------------------
 OpenMP BLAS3 based DFT computing Module                
 Release: version 1.0, May 2013, Q-Chem Inc. Pittsburgh 
 -------------------------------------------------------
 ---------------------------------------
  Cycle       Energy        RMS Gradient
 ---------------------------------------
    1    -343.1845811051      8.19E-04 Normal BFGS step
TIMEINFO->: J/JK contribution 13.85 sec.
    2    -343.1845841653      2.69E-04 Normal BFGS step
TIMEINFO->: J/JK contribution 13.83 sec.
    3    -343.1845846545      9.89E-05 Normal BFGS step
TIMEINFO->: J/JK contribution 14.03 sec.
    4    -343.1845847173      2.90E-05 Normal BFGS step
TIMEINFO->: J/JK contribution 13.74 sec.
    5    -343.1845847216      1.20E-05 Normal BFGS step
TIMEINFO->: J/JK contribution 13.96 sec.
    6    -343.1845847222      1.30E-06 Normal BFGS step
TIMEINFO->: J/JK contribution 13.72 sec.
    7    -343.1845847222      2.84E-07 Normal BFGS step
TIMEINFO->: J/JK contribution 13.47 sec.
    8    -343.1845847222      3.95E-08 Normal BFGS step
TIMEINFO->: J/JK contribution 13.50 sec.
   GDM::WARNING energy changes are now smaller than effective accuracy.
   GDM::        calculation will continue, but THRESH should be increased
   GDM::        or SCF_CONVERGENCE decreased.
   GDM::        effective_thresh =   9.000000000000000E-011
    9    -343.1845847222      2.39E-08 Normal BFGS step
TIMEINFO->: J/JK contribution 13.35 sec.
   10    -343.1845847222      8.25E-09 Convergence criterion met
 ---------------------------------------
 B3LYP orbitals are now ready for the XYGJ-OS calculation.
 XYGJ-OS energy = Exch (0.7731 HF  + 0.2269 Slater) + 
                  Corr (0.2754 LYP + 0.2309 VWN1RPA + 0.4364 OS-MP2)
 SCF time:  CPU 200.43 s  wall 25.26 s
 SCF   energy in the final basis set = -342.60991693
 Total energy in the final basis set = -342.60991693
 Entering Scaled Opposite Spin MP2
 NBasAux in rimp2.F =          285

 OS-MP2 job begins now...

 SOS scaling factor =  0.4
 Form (P|Q)**(-1/2)...
 
 Form (ia|P)...
 Form BiaQ = (ia|P)*(P|Q)**(-1/2)...
 Laplace quadrature loop begins
 Laplace point 1: correlation energy     =        -0.1624806111
 Laplace point 2: correlation energy     =        -0.1238337126
 Laplace point 3: correlation energy     =        -0.0781276817
 Laplace point 4: correlation energy     =        -0.0670259065
 Laplace point 5: correlation energy     =        -0.0297309923
 Laplace point 6: correlation energy     =        -0.0037153547
 Laplace point 7: correlation energy     =        -0.0000549491
 
 singles contribution not yet available for XYGJ-OS 
 Total OS-MP2 correlation energy         =        -0.4649692081

 Total XYGJ-OS energy                    =      -342.8128294943
 
 ------------------------------------------------------------------------------
                     SOSMP2        : Timing summary (seconds)
 ------------------------------------------------------------------------------
     job step          cpu (% of tot)      sys (% of tot)     wall (% of tot)
 ------------------------------------------------------------------------------
  Form inv (P|Q)    0.5797E+00 ( 7.6)   0.2000E-05 ( 6.9)   0.7292E-01 ( 7.6)
  Form (ia|P)       0.4502E+01 (59.2)   0.1700E-04 (58.6)   0.5663E+00 (59.0)
  Form  BiaQ        0.2701E+00 ( 3.6)   0.0000E+00 ( 0.0)   0.3391E-01 ( 3.5)
  LP orbitals       0.3390E+00 ( 4.5)   0.1000E-05 ( 3.4)   0.4259E-01 ( 4.4)
  Form  X(PQ)       0.1435E+01 (18.9)   0.5000E-05 (17.2)   0.1803E+00 (18.8)
  Increment EMP2    0.3603E+00 ( 4.7)   0.3000E-05 (10.3)   0.4798E-01 ( 5.0)
 ------------------------------------------------------------------------------
   Grand Totals     0.7605E+01          0.2900E-04          0.9592E+00
 ------------------------------------------------------------------------------
 
 --------------------------------------------------------------
 
                    Orbital Energies (a.u.)
 --------------------------------------------------------------
 
 Alpha MOs
 -- Occupied --
-77.053  -6.548  -4.708  -4.708  -4.704  -0.647  -0.388  -0.388
 -0.282
 -- Virtual --
 -0.014   0.009   0.010   0.026   0.029   0.042   0.078   0.091
  0.093   0.101   0.101   0.103   0.198   0.199   0.206   0.235
  0.236   0.246   0.253   0.254   0.256   0.289   0.291   0.291
  0.400   0.400   0.402   0.483   0.484   0.496   0.498   0.533
  0.582   0.582   0.615   0.627   0.627   0.643   0.644   0.706
  0.776   0.776   0.820   0.833   0.854   0.854   0.881   0.881
  0.892   0.987   0.987   1.004   1.042   1.042   1.059   1.059
  1.106   1.132   1.304   1.305   1.315   1.350   1.352   1.352
  1.426   1.427   1.502   1.540   1.541   1.632   1.684   1.856
  1.856   1.917   2.000   2.000   2.037   2.118   2.119   2.249
  2.472   2.472   2.846   3.149   3.149   3.375   3.612   3.612
  3.624   3.684   3.684   3.818   3.818   3.821   3.899   3.951
  4.090   4.090   4.148   4.166   4.166   4.202   4.318   4.318
  4.343   4.435   4.435   4.851   4.852   5.077   7.079   7.079
  7.087   7.921   7.921   9.802   9.971   9.971  12.418  26.285
 26.291  26.298  26.298  26.305  26.306  26.306  32.544  32.544
 32.551  32.950  32.950  41.164  41.349  41.349  71.354
 --------------------------------------------------------------
 
          Ground-State Mulliken Net Atomic Charges

     Atom                 Charge (a.u.)
  ----------------------------------------
      1 P                    -0.163881
      2 H                     0.053650
      3 H                     0.055115
      4 H                     0.055115
  ----------------------------------------
  Sum of atomic charges =     0.000000

 -----------------------------------------------------------------
                    Cartesian Multipole Moments
 -----------------------------------------------------------------
    Charge (ESU x 10^10)
                 0.0000
    Dipole Moment (Debye)
         X      -0.0000      Y       0.0023      Z      -0.5664
       Tot       0.5664
    Quadrupole Moments (Debye-Ang)
        XX     -14.8535     XY      -0.0000     YY     -14.8774
        XZ       0.0000     YZ      -0.0017     ZZ     -16.9381
    Octopole Moments (Debye-Ang^2)
       XXX      -0.0000    XXY       0.0036    XYY      -0.0000
       YYY       0.0120    XXZ       1.7205    XYZ       0.0000
       YYZ       1.7316    XZZ      -0.0000    YZZ       0.0031
       ZZZ       5.6112
    Hexadecapole Moments (Debye-Ang^3)
      XXXX     -31.8671   XXXY      -0.0000   XXYY     -10.6419
      XYYY      -0.0000   YYYY     -31.9875   XXXZ       0.0000
      XXYZ      -0.5611   XYYZ       0.0000   YYYZ       0.5493
      XXZZ     -11.3776   XYZZ      -0.0000   YYZZ     -11.4049
      XZZZ       0.0000   YZZZ      -0.0038   ZZZZ     -38.3814
 -----------------------------------------------------------------
Archival summary:
1\1\n0095.mhg0\SP\ProcedureUnspecified\BasisUnspecified\13\yhljason\WedOct2103:30:552020WedOct2103:30:552020\0\\#,ProcedureUnspecified,BasisUnspecified,\\0,1\P\H,1,1.42097\H,1,1.42097,2,93.3007\H,1,1.421,2,93.3031,3,-93.5051,0\\\@

 Total job time:  26.87s(wall), 212.34s(cpu) 
 Wed Oct 21 03:30:55 2020

        *************************************************************
        *                                                           *
        *  Thank you very much for using Q-Chem.  Have a nice day.  *
        *                                                           *
        *************************************************************


 
User input: 4 of 7 
 
Q-Chem Developer Version!
                  Welcome to Q-Chem
     A Quantum Leap Into The Future Of Chemistry


 Q-Chem 5.1, Q-Chem, Inc., Pleasanton, CA (2018)

 Yihan Shao,  Zhengting Gan,  E. Epifanovsky,  A. T. B. Gilbert,  M. Wormit,  
 J. Kussmann,  A. W. Lange,  A. Behn,  Jia Deng,  Xintian Feng,  D. Ghosh,  
 M. Goldey,  P. R. Horn,  L. D. Jacobson,  I. Kaliman,  T. Kus,  A. Landau,  
 Jie Liu,  E. I. Proynov,  R. M. Richard,  R. P. Steele,  E. J. Sundstrom,  
 H. L. Woodcock III,  P. M. Zimmerman,  D. Zuev,  B. Albrecht,  E. Alguire,  
 S. A. Baeppler,  D. Barton,  Z. Benda,  Y. A. Bernard,  E. J. Berquist,  
 K. B. Bravaya,  H. Burton,  D. Casanova,  Chun-Min Chang,  Yunqing Chen,  
 A. Chien,  K. D. Closser,  M. P. Coons,  S. Coriani,  S. Dasgupta,  
 A. L. Dempwolff,  M. Diedenhofen,  Hainam Do,  R. G. Edgar,  Po-Tung Fang,  
 S. Faraji,  S. Fatehi,  Qingguo Feng,  K. D. Fenk,  J. Fosso-Tande,  
 Qinghui Ge,  A. Ghysels,  G. Gidofalvi,  J. Gomes,  J. Gonthier,  A. Gunina,  
 D. Hait,  M. W. D. Hanson-Heine,  P. H. P. Harbach,  A. W. Hauser,  
 J. E. Herr,  E. G. Hohenstein,  Z. C. Holden,  Kerwin Hui,  B. C. Huynh,  
 T.-C. Jagau,  Hyunjun Ji,  B. Kaduk,  K. Khistyaev,  Jaehoon Kim,  
 P. Klunzinger,  K. Koh,  D. Kosenkov,  L. Koulias,  T. Kowalczyk,  
 C. M. Krauter,  A. Kunitsa,  Ka Un Lao,  A. Laurent,  K. V. Lawler,  
 Joonho Lee,  D. Lefrancois,  S. Lehtola,  D. S. Levine,  Yi-Pei Li,  
 You-Sheng Lin,  Fenglai Liu,  E. Livshits,  A. Luenser,  P. Manohar,  
 E. Mansoor,  S. F. Manzer,  Shan-Ping Mao,  Yuezhi Mao,  N. Mardirossian,  
 A. V. Marenich,  T. Markovich,  L. A. Martinez-Martinez,  S. A. Maurer,  
 N. J. Mayhall,  S. C. McKenzie,  J.-M. Mewes,  A. F. Morrison,  
 J. W. Mullinax,  K. Nanda,  T. S. Nguyen-Beck,  R. Olivares-Amaya,  
 J. A. Parkhill,  T. M. Perrine,  F. Plasser,  P. Pokhilko,  S. Prager,  
 A. Prociuk,  E. Ramos,  D. R. Rehn,  F. Rob,  M. Schneider,  N. Sergueev,  
 S. M. Sharada,  S. Sharma,  D. W. Small,  T. Stauch,  T. Stein,  
 Yu-Chuan Su,  A. J. W. Thom,  A. Tkatchenko,  T. Tsuchimochi,  N. M. Tubman,  
 L. Vogt,  M. L. Vidal,  O. Vydrov,  M. A. Watson,  J. Wenzel,  
 M. de Wergifosse,  T. A. Wesolowski,  A. White,  J. Witte,  A. Yamada,  
 Jun Yang,  K. Yao,  S. Yeganeh,  S. R. Yost,  Zhi-Qiang You,  A. Zech,  
 Igor Ying Zhang,  Xing Zhang,  Yan Zhao,  Ying Zhu,  B. R. Brooks,  
 G. K. L. Chan,  C. J. Cramer,  M. S. Gordon,  W. J. Hehre,  A. Klamt,  
 M. W. Schmidt,  C. D. Sherrill,  D. G. Truhlar,  A. Aspuru-Guzik,  R. Baer,  
 A. T. Bell,  N. A. Besley,  Jeng-Da Chai,  A. E. DePrince, III,  
 R. A. DiStasio Jr.,  A. Dreuw,  B. D. Dunietz,  T. R. Furlani,  
 Chao-Ping Hsu,  Yousung Jung,  Jing Kong,  D. S. Lambrecht,  WanZhen Liang,  
 C. Ochsenfeld,  V. A. Rassolov,  L. V. Slipchenko,  J. E. Subotnik,  
 T. Van Voorhis,  J. M. Herbert,  A. I. Krylov,  P. M. W. Gill,  M. Head-Gordon

 Contributors to earlier versions of Q-Chem not listed above: 
 R. D. Adamson,  B. Austin,  J. Baker,  G. J. O. Beran,  K. Brandhorst,  
 S. T. Brown,  E. F. C. Byrd,  A. K. Chakraborty,  C.-L. Cheng,  
 Siu Hung Chien,  D. M. Chipman,  D. L. Crittenden,  H. Dachsel,  
 R. J. Doerksen,  A. D. Dutoi,  L. Fusti-Molnar,  W. A. Goddard III,  
 A. Golubeva-Zadorozhnaya,  S. R. Gwaltney,  G. Hawkins,  A. Heyden,  
 S. Hirata,  G. Kedziora,  F. J. Keil,  C. Kelley,  Jihan Kim,  R. A. King,  
 R. Z. Khaliullin,  P. P. Korambath,  W. Kurlancheek,  A. M. Lee,  M. S. Lee,  
 S. V. Levchenko,  Ching Yeh Lin,  D. Liotard,  R. C. Lochan,  I. Lotan,  
 P. E. Maslen,  N. Nair,  D. P. O'Neill,  D. Neuhauser,  E. Neuscamman,  
 C. M. Oana,  R. Olson,  B. Peters,  R. Peverati,  P. A. Pieniazek,  
 Y. M. Rhee,  J. Ritchie,  M. A. Rohrdanz,  E. Rosta,  N. J. Russ,  
 H. F. Schaefer III,  N. E. Schultz,  N. Shenvi,  A. C. Simmonett,  A. Sodt,  
 D. Stuck,  K. S. Thanthiriwatte,  V. Vanovschi,  Tao Wang,  A. Warshel,  
 C. F. Williams,  Q. Wu,  X. Xu,  W. Zhang

 Please cite Q-Chem as follows:
 Y. Shao et al., Mol. Phys. 113, 184-215 (2015)
 DOI: 10.1080/00268976.2014.952696

 Q-Chem 5.1.1 for Intel X86 EM64T Linux

 Parts of Q-Chem use Armadillo 8.300.2 (Tropical Shenanigans).
 http://arma.sourceforge.net/

 Q-Chem begins on Wed Oct 21 03:30:55 2020  

Host: n0095.mhg0
0

     Scratch files written to /local/scratch/users/yhljason/PH3_XYGJOS_aug-cc-pcVTZ.inp20201021032934//
The previous job contains 0 fragments, simply inherited here
Input Ideriv = 2
Curr. Ideriv = -1
Max.  Ideriv = 2

Checking the input file for inconsistencies... 	...done.

--------------------------------------------------------------
User input:
--------------------------------------------------------------
$molecule
read
$end

$rem

jobtype sp
exchange XYGJOS
xc_grid 000099000590
basis aug-cc-pcVTZ
aux_basis rimp2-aug-cc-pVTZ
max_scf_cycles 200
thresh 14
scf_convergence 8
mem_total 128000
cc_memory 96000
cc_backend xm
mem_static 1500
symmetry false
sym_ignore true
scf_guess read
unrestricted false
scf_algorithm gdm
n_frozen_core 0
$end

$multipole_field
YY 0.0001
$end


--------------------------------------------------------------
 ----------------------------------------------------------------
             Standard Nuclear Orientation (Angstroms)
    I     Atom           X                Y                Z
 ----------------------------------------------------------------
    1      P       0.0000000000     0.0000000000     0.0000000000
    2      H       0.0000000000    -1.1932000000    -0.7717000000
    3      H       1.0333000000     0.5966000000    -0.7717000000
    4      H      -1.0333000000     0.5966000000    -0.7717000000
 ----------------------------------------------------------------
 Nuclear Repulsion Energy =    17.5262807188 hartrees
 There are        9 alpha and        9 beta electrons
 Requested basis set is aug-cc-pCVTZ
 There are 50 shells and 144 basis functions

 Total QAlloc Memory Limit 128000 MB
 Mega-Array Size      1467 MB
 MEM_STATIC part      1500 MB

                       Distance Matrix (Angstroms)
             P (  1)   H (  2)   H (  3)
   H (  2)  1.421002
   H (  3)  1.420972  2.066662
   H (  4)  1.420972  2.066662  2.066600
 
 Applying Cartesian multipole field
    Component          Value
    ---------          -----
     (0,2,0)        1.00000E-04
 Nucleus-field energy     =     0.0007626328 hartrees
 Requested basis set is rimp2-aug-cc-pVTZ
 There are 79 shells and 285 basis functions
 A cutoff of  1.0D-14 yielded   1275 shell pairs
 There are     10661 function pairs (     13878 Cartesian)
 
 -------------------------------------------------------
 OpenMP Integral Computing Module                       
 Release: version 1.0, May 2013, Q-Chem Inc. Pittsburgh 
 -------------------------------------------------------
 Integral Job Info:
 Integral job number is                      11
 Integral operator is                         1
 short-range coefficients                     0
 long-range coefficients              100000000
 Omega coefficients                           0
 if combine SR and LR in K                    0
 Integral screening is                        0
 Integral computing path is                   2
 max size of driver memory is            800000
 size of driver memory is                776718
 size of scratch memory is             29531563
 max col of scratch BK array              10000
 max len of scratch array in speh3          662
 max len of scratch index in speh4           32
 max int batch size is                      520
 min int batch size is                       52
 fixed nKL is                                31
 max L of basis functions is                  3
 order of int derivative is                   0
 number of shells is                         50
 number of basis is                         164
 number of cartesian basis is               164
 number of contracted shell pairs          1275
 number of primitive shell pairs           5514
 maxK2 (contraction) of shell pair          169
 max number of K2 of shell pair               1
 max number of CS2 of shell pair            196
 max number of PS2 of shell pair           1014
 mem total for path MDJ                  547738
 -------------------------------------------------------
 Smallest overlap matrix eigenvalue = 1.71E-04
 Guess MOs from SCF MO coefficient file
 Reading MOs from coefficient file
 Reading MOs from coefficient file
 A restricted hybrid HF-DFT SCF calculation will be
 performed using Geometric Direct Minimization
 Exchange:     0.2000 Hartree-Fock + 0.0800 Slater + 0.7200 B88
 Correlation:  0.1900 VWN1RPA + 0.8100 LYP
 Using Euler-Maclaurin-Lebedev (99,590) quadrature formula
 SCF converges when RMS gradient is below 1.0E-08
Using Q-Chem read-in guess as SCF_GUESS READ specified.

 using 8 threads for integral computing
 -------------------------------------------------------
 OpenMP Integral computing Module                
 Release: version 2.0, May 2017, Q-Chem Inc. Pleasanton 
 -------------------------------------------------------
TIMEINFO->: J/JK contribution 13.76 sec.
 -------------------------------------------------------
 OpenMP BLAS3 based DFT computing Module                
 Release: version 1.0, May 2013, Q-Chem Inc. Pittsburgh 
 -------------------------------------------------------
 ---------------------------------------
  Cycle       Energy        RMS Gradient
 ---------------------------------------
    1    -343.1867951444      5.22E-04 Normal BFGS step
TIMEINFO->: J/JK contribution 13.84 sec.
    2    -343.1867964413      2.71E-04 Normal BFGS step
TIMEINFO->: J/JK contribution 13.76 sec.
    3    -343.1867969388      5.70E-05 Normal BFGS step
TIMEINFO->: J/JK contribution 13.98 sec.
    4    -343.1867969553      2.92E-05 Normal BFGS step
TIMEINFO->: J/JK contribution 13.72 sec.
    5    -343.1867969593      5.81E-06 Normal BFGS step
TIMEINFO->: J/JK contribution 13.68 sec.
    6    -343.1867969594      9.35E-07 Normal BFGS step
TIMEINFO->: J/JK contribution 13.51 sec.
    7    -343.1867969594      9.94E-08 Normal BFGS step
TIMEINFO->: J/JK contribution 13.48 sec.
    8    -343.1867969594      1.77E-08 Normal BFGS step
TIMEINFO->: J/JK contribution 13.47 sec.
    9    -343.1867969594      1.33E-09 Convergence criterion met
 ---------------------------------------
 B3LYP orbitals are now ready for the XYGJ-OS calculation.
 XYGJ-OS energy = Exch (0.7731 HF  + 0.2269 Slater) + 
                  Corr (0.2754 LYP + 0.2309 VWN1RPA + 0.4364 OS-MP2)
 SCF time:  CPU 179.51 s  wall 22.62 s
 SCF   energy in the final basis set = -342.61211793
 Total energy in the final basis set = -342.61211793
 Entering Scaled Opposite Spin MP2
 NBasAux in rimp2.F =          285

 OS-MP2 job begins now...

 SOS scaling factor =  0.4
 Form (P|Q)**(-1/2)...
 
 Form (ia|P)...
 Form BiaQ = (ia|P)*(P|Q)**(-1/2)...
 Laplace quadrature loop begins
 Laplace point 1: correlation energy     =        -0.1624754916
 Laplace point 2: correlation energy     =        -0.1238241225
 Laplace point 3: correlation energy     =        -0.0781170406
 Laplace point 4: correlation energy     =        -0.0670302261
 Laplace point 5: correlation energy     =        -0.0297477936
 Laplace point 6: correlation energy     =        -0.0037224924
 Laplace point 7: correlation energy     =        -0.0000553117
 
 singles contribution not yet available for XYGJ-OS 
 Total OS-MP2 correlation energy         =        -0.4649724785

 Total XYGJ-OS energy                    =      -342.8150319204
 
 ------------------------------------------------------------------------------
                     SOSMP2        : Timing summary (seconds)
 ------------------------------------------------------------------------------
     job step          cpu (% of tot)      sys (% of tot)     wall (% of tot)
 ------------------------------------------------------------------------------
  Form inv (P|Q)    0.5878E+00 ( 7.6)   0.3000E-05 ( 8.6)   0.7384E-01 ( 7.6)
  Form (ia|P)       0.4586E+01 (59.5)   0.1900E-04 (54.3)   0.5783E+00 (59.5)
  Form  BiaQ        0.2684E+00 ( 3.5)   0.1000E-05 ( 2.9)   0.3369E-01 ( 3.5)
  LP orbitals       0.3371E+00 ( 4.4)   0.1000E-05 ( 2.9)   0.4231E-01 ( 4.4)
  Form  X(PQ)       0.1436E+01 (18.6)   0.1000E-04 (28.6)   0.1801E+00 (18.5)
  Increment EMP2    0.3761E+00 ( 4.9)   0.1000E-05 ( 2.9)   0.4836E-01 ( 5.0)
 ------------------------------------------------------------------------------
   Grand Totals     0.7714E+01          0.3500E-04          0.9722E+00
 ------------------------------------------------------------------------------
 
 --------------------------------------------------------------
 
                    Orbital Energies (a.u.)
 --------------------------------------------------------------
 
 Alpha MOs
 -- Occupied --
-77.054  -6.548  -4.709  -4.709  -4.705  -0.648  -0.389  -0.388
 -0.282
 -- Virtual --
 -0.018   0.008   0.008   0.021   0.023   0.040   0.073   0.086
  0.088   0.099   0.099   0.102   0.194   0.196   0.203   0.233
  0.233   0.244   0.251   0.252   0.253   0.286   0.287   0.287
  0.399   0.399   0.401   0.481   0.482   0.495   0.496   0.531
  0.580   0.580   0.613   0.625   0.625   0.642   0.642   0.704
  0.775   0.775   0.819   0.831   0.852   0.853   0.880   0.880
  0.890   0.986   0.986   1.003   1.040   1.040   1.057   1.057
  1.105   1.130   1.303   1.303   1.314   1.349   1.351   1.351
  1.425   1.425   1.501   1.539   1.539   1.631   1.682   1.854
  1.855   1.916   1.999   1.999   2.036   2.117   2.117   2.248
  2.471   2.471   2.845   3.148   3.148   3.374   3.611   3.611
  3.623   3.683   3.683   3.817   3.817   3.820   3.898   3.950
  4.089   4.089   4.147   4.165   4.165   4.201   4.317   4.317
  4.342   4.434   4.434   4.850   4.851   5.076   7.078   7.078
  7.087   7.920   7.920   9.801   9.970   9.970  12.417  26.284
 26.290  26.297  26.297  26.304  26.305  26.305  32.543  32.543
 32.550  32.949  32.949  41.164  41.348  41.348  71.353
 --------------------------------------------------------------
 
          Ground-State Mulliken Net Atomic Charges

     Atom                 Charge (a.u.)
  ----------------------------------------
      1 P                    -0.162873
      2 H                     0.053306
      3 H                     0.054784
      4 H                     0.054784
  ----------------------------------------
  Sum of atomic charges =    -0.000000

 -----------------------------------------------------------------
                    Cartesian Multipole Moments
 -----------------------------------------------------------------
    Charge (ESU x 10^10)
                 0.0000
    Dipole Moment (Debye)
         X      -0.0000      Y       0.0023      Z      -0.5632
       Tot       0.5632
    Quadrupole Moments (Debye-Ang)
        XX     -14.8779     XY       0.0000     YY     -14.9020
        XZ       0.0000     YZ      -0.0017     ZZ     -16.9442
    Octopole Moments (Debye-Ang^2)
       XXX       0.0000    XXY      -0.0075    XYY      -0.0000
       YYY       0.0233    XXZ       1.7330    XYZ      -0.0000
       YYZ       1.7442    XZZ      -0.0000    YZZ       0.0032
       ZZZ       5.6224
    Hexadecapole Moments (Debye-Ang^3)
      XXXX     -31.9946   XXXY       0.0000   XXYY     -10.6846
      XYYY      -0.0000   YYYY     -32.1163   XXXZ       0.0000
      XXYZ      -0.5524   XYYZ       0.0000   YYYZ       0.5405
      XXZZ     -11.4118   XYZZ      -0.0000   YYZZ     -11.4393
      XZZZ       0.0000   YZZZ      -0.0039   ZZZZ     -38.4305
 -----------------------------------------------------------------
Archival summary:
1\1\n0095.mhg0\SP\ProcedureUnspecified\BasisUnspecified\13\yhljason\WedOct2103:31:202020WedOct2103:31:202020\0\\#,ProcedureUnspecified,BasisUnspecified,\\0,1\P\H,1,1.42097\H,1,1.42097,2,93.3007\H,1,1.421,2,93.3031,3,-93.5051,0\\\@

 Total job time:  24.26s(wall), 192.04s(cpu) 
 Wed Oct 21 03:31:20 2020

        *************************************************************
        *                                                           *
        *  Thank you very much for using Q-Chem.  Have a nice day.  *
        *                                                           *
        *************************************************************


 
User input: 5 of 7 
 
Q-Chem Developer Version!
                  Welcome to Q-Chem
     A Quantum Leap Into The Future Of Chemistry


 Q-Chem 5.1, Q-Chem, Inc., Pleasanton, CA (2018)

 Yihan Shao,  Zhengting Gan,  E. Epifanovsky,  A. T. B. Gilbert,  M. Wormit,  
 J. Kussmann,  A. W. Lange,  A. Behn,  Jia Deng,  Xintian Feng,  D. Ghosh,  
 M. Goldey,  P. R. Horn,  L. D. Jacobson,  I. Kaliman,  T. Kus,  A. Landau,  
 Jie Liu,  E. I. Proynov,  R. M. Richard,  R. P. Steele,  E. J. Sundstrom,  
 H. L. Woodcock III,  P. M. Zimmerman,  D. Zuev,  B. Albrecht,  E. Alguire,  
 S. A. Baeppler,  D. Barton,  Z. Benda,  Y. A. Bernard,  E. J. Berquist,  
 K. B. Bravaya,  H. Burton,  D. Casanova,  Chun-Min Chang,  Yunqing Chen,  
 A. Chien,  K. D. Closser,  M. P. Coons,  S. Coriani,  S. Dasgupta,  
 A. L. Dempwolff,  M. Diedenhofen,  Hainam Do,  R. G. Edgar,  Po-Tung Fang,  
 S. Faraji,  S. Fatehi,  Qingguo Feng,  K. D. Fenk,  J. Fosso-Tande,  
 Qinghui Ge,  A. Ghysels,  G. Gidofalvi,  J. Gomes,  J. Gonthier,  A. Gunina,  
 D. Hait,  M. W. D. Hanson-Heine,  P. H. P. Harbach,  A. W. Hauser,  
 J. E. Herr,  E. G. Hohenstein,  Z. C. Holden,  Kerwin Hui,  B. C. Huynh,  
 T.-C. Jagau,  Hyunjun Ji,  B. Kaduk,  K. Khistyaev,  Jaehoon Kim,  
 P. Klunzinger,  K. Koh,  D. Kosenkov,  L. Koulias,  T. Kowalczyk,  
 C. M. Krauter,  A. Kunitsa,  Ka Un Lao,  A. Laurent,  K. V. Lawler,  
 Joonho Lee,  D. Lefrancois,  S. Lehtola,  D. S. Levine,  Yi-Pei Li,  
 You-Sheng Lin,  Fenglai Liu,  E. Livshits,  A. Luenser,  P. Manohar,  
 E. Mansoor,  S. F. Manzer,  Shan-Ping Mao,  Yuezhi Mao,  N. Mardirossian,  
 A. V. Marenich,  T. Markovich,  L. A. Martinez-Martinez,  S. A. Maurer,  
 N. J. Mayhall,  S. C. McKenzie,  J.-M. Mewes,  A. F. Morrison,  
 J. W. Mullinax,  K. Nanda,  T. S. Nguyen-Beck,  R. Olivares-Amaya,  
 J. A. Parkhill,  T. M. Perrine,  F. Plasser,  P. Pokhilko,  S. Prager,  
 A. Prociuk,  E. Ramos,  D. R. Rehn,  F. Rob,  M. Schneider,  N. Sergueev,  
 S. M. Sharada,  S. Sharma,  D. W. Small,  T. Stauch,  T. Stein,  
 Yu-Chuan Su,  A. J. W. Thom,  A. Tkatchenko,  T. Tsuchimochi,  N. M. Tubman,  
 L. Vogt,  M. L. Vidal,  O. Vydrov,  M. A. Watson,  J. Wenzel,  
 M. de Wergifosse,  T. A. Wesolowski,  A. White,  J. Witte,  A. Yamada,  
 Jun Yang,  K. Yao,  S. Yeganeh,  S. R. Yost,  Zhi-Qiang You,  A. Zech,  
 Igor Ying Zhang,  Xing Zhang,  Yan Zhao,  Ying Zhu,  B. R. Brooks,  
 G. K. L. Chan,  C. J. Cramer,  M. S. Gordon,  W. J. Hehre,  A. Klamt,  
 M. W. Schmidt,  C. D. Sherrill,  D. G. Truhlar,  A. Aspuru-Guzik,  R. Baer,  
 A. T. Bell,  N. A. Besley,  Jeng-Da Chai,  A. E. DePrince, III,  
 R. A. DiStasio Jr.,  A. Dreuw,  B. D. Dunietz,  T. R. Furlani,  
 Chao-Ping Hsu,  Yousung Jung,  Jing Kong,  D. S. Lambrecht,  WanZhen Liang,  
 C. Ochsenfeld,  V. A. Rassolov,  L. V. Slipchenko,  J. E. Subotnik,  
 T. Van Voorhis,  J. M. Herbert,  A. I. Krylov,  P. M. W. Gill,  M. Head-Gordon

 Contributors to earlier versions of Q-Chem not listed above: 
 R. D. Adamson,  B. Austin,  J. Baker,  G. J. O. Beran,  K. Brandhorst,  
 S. T. Brown,  E. F. C. Byrd,  A. K. Chakraborty,  C.-L. Cheng,  
 Siu Hung Chien,  D. M. Chipman,  D. L. Crittenden,  H. Dachsel,  
 R. J. Doerksen,  A. D. Dutoi,  L. Fusti-Molnar,  W. A. Goddard III,  
 A. Golubeva-Zadorozhnaya,  S. R. Gwaltney,  G. Hawkins,  A. Heyden,  
 S. Hirata,  G. Kedziora,  F. J. Keil,  C. Kelley,  Jihan Kim,  R. A. King,  
 R. Z. Khaliullin,  P. P. Korambath,  W. Kurlancheek,  A. M. Lee,  M. S. Lee,  
 S. V. Levchenko,  Ching Yeh Lin,  D. Liotard,  R. C. Lochan,  I. Lotan,  
 P. E. Maslen,  N. Nair,  D. P. O'Neill,  D. Neuhauser,  E. Neuscamman,  
 C. M. Oana,  R. Olson,  B. Peters,  R. Peverati,  P. A. Pieniazek,  
 Y. M. Rhee,  J. Ritchie,  M. A. Rohrdanz,  E. Rosta,  N. J. Russ,  
 H. F. Schaefer III,  N. E. Schultz,  N. Shenvi,  A. C. Simmonett,  A. Sodt,  
 D. Stuck,  K. S. Thanthiriwatte,  V. Vanovschi,  Tao Wang,  A. Warshel,  
 C. F. Williams,  Q. Wu,  X. Xu,  W. Zhang

 Please cite Q-Chem as follows:
 Y. Shao et al., Mol. Phys. 113, 184-215 (2015)
 DOI: 10.1080/00268976.2014.952696

 Q-Chem 5.1.1 for Intel X86 EM64T Linux

 Parts of Q-Chem use Armadillo 8.300.2 (Tropical Shenanigans).
 http://arma.sourceforge.net/

 Q-Chem begins on Wed Oct 21 03:31:20 2020  

Host: n0095.mhg0
0

     Scratch files written to /local/scratch/users/yhljason/PH3_XYGJOS_aug-cc-pcVTZ.inp20201021032934//
The previous job contains 0 fragments, simply inherited here
Input Ideriv = 2
Curr. Ideriv = -1
Max.  Ideriv = 2

Checking the input file for inconsistencies... 	...done.

--------------------------------------------------------------
User input:
--------------------------------------------------------------
$molecule
read
$end

$rem

jobtype sp
exchange XYGJOS
xc_grid 000099000590
basis aug-cc-pcVTZ
aux_basis rimp2-aug-cc-pVTZ
max_scf_cycles 200
thresh 14
scf_convergence 8
mem_total 128000
cc_memory 96000
cc_backend xm
mem_static 1500
symmetry false
sym_ignore true
scf_guess read
unrestricted false
scf_algorithm gdm
n_frozen_core 0
$end

$multipole_field
YY -0.0001
$end


--------------------------------------------------------------
 ----------------------------------------------------------------
             Standard Nuclear Orientation (Angstroms)
    I     Atom           X                Y                Z
 ----------------------------------------------------------------
    1      P       0.0000000000     0.0000000000     0.0000000000
    2      H       0.0000000000    -1.1932000000    -0.7717000000
    3      H       1.0333000000     0.5966000000    -0.7717000000
    4      H      -1.0333000000     0.5966000000    -0.7717000000
 ----------------------------------------------------------------
 Nuclear Repulsion Energy =    17.5262807188 hartrees
 There are        9 alpha and        9 beta electrons
 Requested basis set is aug-cc-pCVTZ
 There are 50 shells and 144 basis functions

 Total QAlloc Memory Limit 128000 MB
 Mega-Array Size      1467 MB
 MEM_STATIC part      1500 MB

                       Distance Matrix (Angstroms)
             P (  1)   H (  2)   H (  3)
   H (  2)  1.421002
   H (  3)  1.420972  2.066662
   H (  4)  1.420972  2.066662  2.066600
 
 Applying Cartesian multipole field
    Component          Value
    ---------          -----
     (0,2,0)       -1.00000E-04
 Nucleus-field energy     =    -0.0007626328 hartrees
 Requested basis set is rimp2-aug-cc-pVTZ
 There are 79 shells and 285 basis functions
 A cutoff of  1.0D-14 yielded   1275 shell pairs
 There are     10661 function pairs (     13878 Cartesian)
 
 -------------------------------------------------------
 OpenMP Integral Computing Module                       
 Release: version 1.0, May 2013, Q-Chem Inc. Pittsburgh 
 -------------------------------------------------------
 Integral Job Info:
 Integral job number is                      11
 Integral operator is                         1
 short-range coefficients                     0
 long-range coefficients              100000000
 Omega coefficients                           0
 if combine SR and LR in K                    0
 Integral screening is                        0
 Integral computing path is                   2
 max size of driver memory is            800000
 size of driver memory is                776718
 size of scratch memory is             29531563
 max col of scratch BK array              10000
 max len of scratch array in speh3          662
 max len of scratch index in speh4           32
 max int batch size is                      520
 min int batch size is                       52
 fixed nKL is                                31
 max L of basis functions is                  3
 order of int derivative is                   0
 number of shells is                         50
 number of basis is                         164
 number of cartesian basis is               164
 number of contracted shell pairs          1275
 number of primitive shell pairs           5514
 maxK2 (contraction) of shell pair          169
 max number of K2 of shell pair               1
 max number of CS2 of shell pair            196
 max number of PS2 of shell pair           1014
 mem total for path MDJ                  547738
 -------------------------------------------------------
 Smallest overlap matrix eigenvalue = 1.71E-04
 Guess MOs from SCF MO coefficient file
 Reading MOs from coefficient file
 Reading MOs from coefficient file
 A restricted hybrid HF-DFT SCF calculation will be
 performed using Geometric Direct Minimization
 Exchange:     0.2000 Hartree-Fock + 0.0800 Slater + 0.7200 B88
 Correlation:  0.1900 VWN1RPA + 0.8100 LYP
 Using Euler-Maclaurin-Lebedev (99,590) quadrature formula
 SCF converges when RMS gradient is below 1.0E-08
Using Q-Chem read-in guess as SCF_GUESS READ specified.

 using 8 threads for integral computing
 -------------------------------------------------------
 OpenMP Integral computing Module                
 Release: version 2.0, May 2017, Q-Chem Inc. Pleasanton 
 -------------------------------------------------------
TIMEINFO->: J/JK contribution 14.16 sec.
 -------------------------------------------------------
 OpenMP BLAS3 based DFT computing Module                
 Release: version 1.0, May 2013, Q-Chem Inc. Pittsburgh 
 -------------------------------------------------------
 ---------------------------------------
  Cycle       Energy        RMS Gradient
 ---------------------------------------
    1    -343.1845811111      8.22E-04 Normal BFGS step
TIMEINFO->: J/JK contribution 13.50 sec.
    2    -343.1845841714      2.69E-04 Normal BFGS step
TIMEINFO->: J/JK contribution 13.66 sec.
    3    -343.1845846607      9.84E-05 Normal BFGS step
TIMEINFO->: J/JK contribution 13.67 sec.
    4    -343.1845847234      2.90E-05 Normal BFGS step
TIMEINFO->: J/JK contribution 13.68 sec.
    5    -343.1845847278      1.20E-05 Normal BFGS step
TIMEINFO->: J/JK contribution 13.62 sec.
    6    -343.1845847283      1.31E-06 Normal BFGS step
TIMEINFO->: J/JK contribution 13.61 sec.
    7    -343.1845847284      2.85E-07 Normal BFGS step
TIMEINFO->: J/JK contribution 13.56 sec.
    8    -343.1845847284      3.93E-08 Normal BFGS step
TIMEINFO->: J/JK contribution 13.55 sec.
    9    -343.1845847284      2.37E-08 Normal BFGS step
TIMEINFO->: J/JK contribution 13.23 sec.
   GDM::WARNING energy changes are now smaller than effective accuracy.
   GDM::        calculation will continue, but THRESH should be increased
   GDM::        or SCF_CONVERGENCE decreased.
   GDM::        effective_thresh =   9.000000000000000E-011
   10    -343.1845847284      8.27E-09 Convergence criterion met
 ---------------------------------------
 B3LYP orbitals are now ready for the XYGJ-OS calculation.
 XYGJ-OS energy = Exch (0.7731 HF  + 0.2269 Slater) + 
                  Corr (0.2754 LYP + 0.2309 VWN1RPA + 0.4364 OS-MP2)
 SCF time:  CPU 198.11 s  wall 24.91 s
 SCF   energy in the final basis set = -342.60991694
 Total energy in the final basis set = -342.60991694
 Entering Scaled Opposite Spin MP2
 NBasAux in rimp2.F =          285

 OS-MP2 job begins now...

 SOS scaling factor =  0.4
 Form (P|Q)**(-1/2)...
 
 Form (ia|P)...
 Form BiaQ = (ia|P)*(P|Q)**(-1/2)...
 Laplace quadrature loop begins
 Laplace point 1: correlation energy     =        -0.1624806111
 Laplace point 2: correlation energy     =        -0.1238337125
 Laplace point 3: correlation energy     =        -0.0781276817
 Laplace point 4: correlation energy     =        -0.0670259068
 Laplace point 5: correlation energy     =        -0.0297309925
 Laplace point 6: correlation energy     =        -0.0037153546
 Laplace point 7: correlation energy     =        -0.0000549491
 
 singles contribution not yet available for XYGJ-OS 
 Total OS-MP2 correlation energy         =        -0.4649692082

 Total XYGJ-OS energy                    =      -342.8128295014
 
 ------------------------------------------------------------------------------
                     SOSMP2        : Timing summary (seconds)
 ------------------------------------------------------------------------------
     job step          cpu (% of tot)      sys (% of tot)     wall (% of tot)
 ------------------------------------------------------------------------------
  Form inv (P|Q)    0.5926E+00 ( 8.5)   0.3000E-05 ( 8.6)   0.7445E-01 ( 8.0)
  Form (ia|P)       0.4493E+01 (64.3)   0.2000E-04 (57.1)   0.5647E+00 (60.8)
  Form  BiaQ        0.2683E+00 ( 3.8)   0.2000E-05 ( 5.7)   0.3368E-01 ( 3.6)
  LP orbitals       0.2498E+00 ( 3.6)   0.2000E-05 ( 5.7)   0.3945E-01 ( 4.2)
  Form  X(PQ)       0.1035E+01 (14.8)   0.6000E-05 (17.1)   0.1597E+00 (17.2)
  Increment EMP2    0.2362E+00 ( 3.4)   0.1000E-05 ( 2.9)   0.4177E-01 ( 4.5)
 ------------------------------------------------------------------------------
   Grand Totals     0.6987E+01          0.3500E-04          0.9283E+00
 ------------------------------------------------------------------------------
 
 --------------------------------------------------------------
 
                    Orbital Energies (a.u.)
 --------------------------------------------------------------
 
 Alpha MOs
 -- Occupied --
-77.053  -6.548  -4.708  -4.708  -4.704  -0.647  -0.388  -0.388
 -0.282
 -- Virtual --
 -0.014   0.009   0.010   0.026   0.029   0.042   0.078   0.091
  0.093   0.101   0.101   0.103   0.198   0.199   0.206   0.235
  0.236   0.246   0.253   0.254   0.256   0.290   0.290   0.291
  0.400   0.400   0.402   0.483   0.484   0.496   0.498   0.533
  0.582   0.582   0.615   0.627   0.627   0.643   0.644   0.706
  0.776   0.776   0.820   0.833   0.854   0.854   0.881   0.881
  0.892   0.987   0.987   1.004   1.042   1.042   1.059   1.059
  1.106   1.132   1.304   1.305   1.315   1.350   1.352   1.352
  1.426   1.427   1.502   1.540   1.541   1.632   1.684   1.856
[...]
  0.399   0.399   0.401   0.482   0.482   0.495   0.496   0.531
  0.580   0.580   0.613   0.625   0.625   0.642   0.642   0.704
  0.775   0.775   0.819   0.831   0.852   0.852   0.880   0.880
  0.890   0.986   0.986   1.002   1.040   1.040   1.057   1.057
  1.105   1.130   1.303   1.303   1.314   1.349   1.351   1.351
  1.425   1.425   1.501   1.539   1.539   1.631   1.682   1.855
  1.855   1.916   1.999   1.999   2.036   2.117   2.117   2.248
  2.471   2.471   2.845   3.148   3.148   3.374   3.611   3.611
  3.623   3.683   3.683   3.817   3.817   3.820   3.898   3.950
  4.089   4.089   4.147   4.165   4.165   4.201   4.317   4.317
  4.342   4.434   4.434   4.850   4.850   5.076   7.078   7.078
  7.087   7.920   7.920   9.801   9.970   9.970  12.417  26.284
 26.290  26.297  26.297  26.304  26.305  26.305  32.543  32.543
 32.550  32.949  32.949  41.163  41.348  41.348  71.353
 --------------------------------------------------------------
 
          Ground-State Mulliken Net Atomic Charges

     Atom                 Charge (a.u.)
  ----------------------------------------
      1 P                    -0.162651
      2 H                     0.054207
      3 H                     0.054222
      4 H                     0.054222
  ----------------------------------------
  Sum of atomic charges =     0.000000

 -----------------------------------------------------------------
                    Cartesian Multipole Moments
 -----------------------------------------------------------------
    Charge (ESU x 10^10)
                 0.0000
    Dipole Moment (Debye)
         X       0.0000      Y       0.0000      Z      -0.5603
       Tot       0.5603
    Quadrupole Moments (Debye-Ang)
        XX     -14.8808     XY       0.0000     YY     -14.8807
        XZ       0.0000     YZ      -0.0000     ZZ     -16.9708
    Octopole Moments (Debye-Ang^2)
       XXX       0.0000    XXY      -0.0058    XYY       0.0000
       YYY       0.0059    XXZ       1.7390    XYZ       0.0000
       YYZ       1.7389    XZZ      -0.0000    YZZ       0.0001
       ZZZ       5.6332
    Hexadecapole Moments (Debye-Ang^3)
      XXXX     -32.0106   XXXY       0.0000   XXYY     -10.6703
      XYYY       0.0000   YYYY     -32.0114   XXXZ      -0.0000
      XXYZ      -0.5520   XYYZ       0.0000   YYYZ       0.5519
      XXZZ     -11.4452   XYZZ      -0.0000   YYZZ     -11.4454
      XZZZ       0.0000   YZZZ      -0.0002   ZZZZ     -38.5855
 -----------------------------------------------------------------
Archival summary:
1\1\n0095.mhg0\SP\ProcedureUnspecified\BasisUnspecified\13\yhljason\WedOct2103:32:112020WedOct2103:32:112020\0\\#,ProcedureUnspecified,BasisUnspecified,\\0,1\P\H,1,1.42097\H,1,1.42097,2,93.3007\H,1,1.421,2,93.3031,3,-93.5051,0\\\@

 Total job time:  24.41s(wall), 193.45s(cpu) 
 Wed Oct 21 03:32:11 2020

        *************************************************************
        *                                                           *
        *  Thank you very much for using Q-Chem.  Have a nice day.  *
        *                                                           *
        *************************************************************


 
User input: 7 of 7 
 
Q-Chem Developer Version!
                  Welcome to Q-Chem
     A Quantum Leap Into The Future Of Chemistry


 Q-Chem 5.1, Q-Chem, Inc., Pleasanton, CA (2018)

 Yihan Shao,  Zhengting Gan,  E. Epifanovsky,  A. T. B. Gilbert,  M. Wormit,  
 J. Kussmann,  A. W. Lange,  A. Behn,  Jia Deng,  Xintian Feng,  D. Ghosh,  
 M. Goldey,  P. R. Horn,  L. D. Jacobson,  I. Kaliman,  T. Kus,  A. Landau,  
 Jie Liu,  E. I. Proynov,  R. M. Richard,  R. P. Steele,  E. J. Sundstrom,  
 H. L. Woodcock III,  P. M. Zimmerman,  D. Zuev,  B. Albrecht,  E. Alguire,  
 S. A. Baeppler,  D. Barton,  Z. Benda,  Y. A. Bernard,  E. J. Berquist,  
 K. B. Bravaya,  H. Burton,  D. Casanova,  Chun-Min Chang,  Yunqing Chen,  
 A. Chien,  K. D. Closser,  M. P. Coons,  S. Coriani,  S. Dasgupta,  
 A. L. Dempwolff,  M. Diedenhofen,  Hainam Do,  R. G. Edgar,  Po-Tung Fang,  
 S. Faraji,  S. Fatehi,  Qingguo Feng,  K. D. Fenk,  J. Fosso-Tande,  
 Qinghui Ge,  A. Ghysels,  G. Gidofalvi,  J. Gomes,  J. Gonthier,  A. Gunina,  
 D. Hait,  M. W. D. Hanson-Heine,  P. H. P. Harbach,  A. W. Hauser,  
 J. E. Herr,  E. G. Hohenstein,  Z. C. Holden,  Kerwin Hui,  B. C. Huynh,  
 T.-C. Jagau,  Hyunjun Ji,  B. Kaduk,  K. Khistyaev,  Jaehoon Kim,  
 P. Klunzinger,  K. Koh,  D. Kosenkov,  L. Koulias,  T. Kowalczyk,  
 C. M. Krauter,  A. Kunitsa,  Ka Un Lao,  A. Laurent,  K. V. Lawler,  
 Joonho Lee,  D. Lefrancois,  S. Lehtola,  D. S. Levine,  Yi-Pei Li,  
 You-Sheng Lin,  Fenglai Liu,  E. Livshits,  A. Luenser,  P. Manohar,  
 E. Mansoor,  S. F. Manzer,  Shan-Ping Mao,  Yuezhi Mao,  N. Mardirossian,  
 A. V. Marenich,  T. Markovich,  L. A. Martinez-Martinez,  S. A. Maurer,  
 N. J. Mayhall,  S. C. McKenzie,  J.-M. Mewes,  A. F. Morrison,  
 J. W. Mullinax,  K. Nanda,  T. S. Nguyen-Beck,  R. Olivares-Amaya,  
 J. A. Parkhill,  T. M. Perrine,  F. Plasser,  P. Pokhilko,  S. Prager,  
 A. Prociuk,  E. Ramos,  D. R. Rehn,  F. Rob,  M. Schneider,  N. Sergueev,  
 S. M. Sharada,  S. Sharma,  D. W. Small,  T. Stauch,  T. Stein,  
 Yu-Chuan Su,  A. J. W. Thom,  A. Tkatchenko,  T. Tsuchimochi,  N. M. Tubman,  
 L. Vogt,  M. L. Vidal,  O. Vydrov,  M. A. Watson,  J. Wenzel,  
 M. de Wergifosse,  T. A. Wesolowski,  A. White,  J. Witte,  A. Yamada,  
 Jun Yang,  K. Yao,  S. Yeganeh,  S. R. Yost,  Zhi-Qiang You,  A. Zech,  
 Igor Ying Zhang,  Xing Zhang,  Yan Zhao,  Ying Zhu,  B. R. Brooks,  
 G. K. L. Chan,  C. J. Cramer,  M. S. Gordon,  W. J. Hehre,  A. Klamt,  
 M. W. Schmidt,  C. D. Sherrill,  D. G. Truhlar,  A. Aspuru-Guzik,  R. Baer,  
 A. T. Bell,  N. A. Besley,  Jeng-Da Chai,  A. E. DePrince, III,  
 R. A. DiStasio Jr.,  A. Dreuw,  B. D. Dunietz,  T. R. Furlani,  
 Chao-Ping Hsu,  Yousung Jung,  Jing Kong,  D. S. Lambrecht,  WanZhen Liang,  
 C. Ochsenfeld,  V. A. Rassolov,  L. V. Slipchenko,  J. E. Subotnik,  
 T. Van Voorhis,  J. M. Herbert,  A. I. Krylov,  P. M. W. Gill,  M. Head-Gordon

 Contributors to earlier versions of Q-Chem not listed above: 
 R. D. Adamson,  B. Austin,  J. Baker,  G. J. O. Beran,  K. Brandhorst,  
 S. T. Brown,  E. F. C. Byrd,  A. K. Chakraborty,  C.-L. Cheng,  
 Siu Hung Chien,  D. M. Chipman,  D. L. Crittenden,  H. Dachsel,  
 R. J. Doerksen,  A. D. Dutoi,  L. Fusti-Molnar,  W. A. Goddard III,  
 A. Golubeva-Zadorozhnaya,  S. R. Gwaltney,  G. Hawkins,  A. Heyden,  
 S. Hirata,  G. Kedziora,  F. J. Keil,  C. Kelley,  Jihan Kim,  R. A. King,  
 R. Z. Khaliullin,  P. P. Korambath,  W. Kurlancheek,  A. M. Lee,  M. S. Lee,  
 S. V. Levchenko,  Ching Yeh Lin,  D. Liotard,  R. C. Lochan,  I. Lotan,  
 P. E. Maslen,  N. Nair,  D. P. O'Neill,  D. Neuhauser,  E. Neuscamman,  
 C. M. Oana,  R. Olson,  B. Peters,  R. Peverati,  P. A. Pieniazek,  
 Y. M. Rhee,  J. Ritchie,  M. A. Rohrdanz,  E. Rosta,  N. J. Russ,  
 H. F. Schaefer III,  N. E. Schultz,  N. Shenvi,  A. C. Simmonett,  A. Sodt,  
 D. Stuck,  K. S. Thanthiriwatte,  V. Vanovschi,  Tao Wang,  A. Warshel,  
 C. F. Williams,  Q. Wu,  X. Xu,  W. Zhang

 Please cite Q-Chem as follows:
 Y. Shao et al., Mol. Phys. 113, 184-215 (2015)
 DOI: 10.1080/00268976.2014.952696

 Q-Chem 5.1.1 for Intel X86 EM64T Linux

 Parts of Q-Chem use Armadillo 8.300.2 (Tropical Shenanigans).
 http://arma.sourceforge.net/

 Q-Chem begins on Wed Oct 21 03:32:11 2020  

Host: n0095.mhg0
0

     Scratch files written to /local/scratch/users/yhljason/PH3_XYGJOS_aug-cc-pcVTZ.inp20201021032934//
The previous job contains 0 fragments, simply inherited here
Input Ideriv = 2
Curr. Ideriv = -1
Max.  Ideriv = 2

Checking the input file for inconsistencies... 	...done.

--------------------------------------------------------------
User input:
--------------------------------------------------------------
$molecule
read
$end

$rem

jobtype sp
exchange XYGJOS
xc_grid 000099000590
basis aug-cc-pcVTZ
aux_basis rimp2-aug-cc-pVTZ
max_scf_cycles 200
thresh 14
scf_convergence 8
mem_total 128000
cc_memory 96000
cc_backend xm
mem_static 1500
symmetry false
sym_ignore true
scf_guess read
unrestricted false
scf_algorithm gdm
n_frozen_core 0
$end

$multipole_field
ZZ -0.0001
$end

--------------------------------------------------------------
 ----------------------------------------------------------------
             Standard Nuclear Orientation (Angstroms)
    I     Atom           X                Y                Z
 ----------------------------------------------------------------
    1      P       0.0000000000     0.0000000000     0.0000000000
    2      H       0.0000000000    -1.1932000000    -0.7717000000
    3      H       1.0333000000     0.5966000000    -0.7717000000
    4      H      -1.0333000000     0.5966000000    -0.7717000000
 ----------------------------------------------------------------
 Nuclear Repulsion Energy =    17.5262807188 hartrees
 There are        9 alpha and        9 beta electrons
 Requested basis set is aug-cc-pCVTZ
 There are 50 shells and 144 basis functions

 Total QAlloc Memory Limit 128000 MB
 Mega-Array Size      1467 MB
 MEM_STATIC part      1500 MB

                       Distance Matrix (Angstroms)
             P (  1)   H (  2)   H (  3)
   H (  2)  1.421002
   H (  3)  1.420972  2.066662
   H (  4)  1.420972  2.066662  2.066600
 
 Applying Cartesian multipole field
    Component          Value
    ---------          -----
     (0,0,2)       -1.00000E-04
 Nucleus-field energy     =    -0.0006379931 hartrees
 Requested basis set is rimp2-aug-cc-pVTZ
 There are 79 shells and 285 basis functions
 A cutoff of  1.0D-14 yielded   1275 shell pairs
 There are     10661 function pairs (     13878 Cartesian)
 
 -------------------------------------------------------
 OpenMP Integral Computing Module                       
 Release: version 1.0, May 2013, Q-Chem Inc. Pittsburgh 
 -------------------------------------------------------
 Integral Job Info:
 Integral job number is                      11
 Integral operator is                         1
 short-range coefficients                     0
 long-range coefficients              100000000
 Omega coefficients                           0
 if combine SR and LR in K                    0
 Integral screening is                        0
 Integral computing path is                   2
 max size of driver memory is            800000
 size of driver memory is                776718
 size of scratch memory is             29531563
 max col of scratch BK array              10000
 max len of scratch array in speh3          662
 max len of scratch index in speh4           32
 max int batch size is                      520
 min int batch size is                       52
 fixed nKL is                                31
 max L of basis functions is                  3
 order of int derivative is                   0
 number of shells is                         50
 number of basis is                         164
 number of cartesian basis is               164
 number of contracted shell pairs          1275
 number of primitive shell pairs           5514
 maxK2 (contraction) of shell pair          169
 max number of K2 of shell pair               1
 max number of CS2 of shell pair            196
 max number of PS2 of shell pair           1014
 mem total for path MDJ                  547738
 -------------------------------------------------------
 Smallest overlap matrix eigenvalue = 1.71E-04
 Guess MOs from SCF MO coefficient file
 Reading MOs from coefficient file
 Reading MOs from coefficient file
 A restricted hybrid HF-DFT SCF calculation will be
 performed using Geometric Direct Minimization
 Exchange:     0.2000 Hartree-Fock + 0.0800 Slater + 0.7200 B88
 Correlation:  0.1900 VWN1RPA + 0.8100 LYP
 Using Euler-Maclaurin-Lebedev (99,590) quadrature formula
 SCF converges when RMS gradient is below 1.0E-08
Using Q-Chem read-in guess as SCF_GUESS READ specified.

 using 8 threads for integral computing
 -------------------------------------------------------
 OpenMP Integral computing Module                
 Release: version 2.0, May 2017, Q-Chem Inc. Pleasanton 
 -------------------------------------------------------
TIMEINFO->: J/JK contribution 13.87 sec.
 -------------------------------------------------------
 OpenMP BLAS3 based DFT computing Module                
 Release: version 1.0, May 2013, Q-Chem Inc. Pittsburgh 
 -------------------------------------------------------
 ---------------------------------------
  Cycle       Energy        RMS Gradient
 ---------------------------------------
    1    -343.1844271034      1.41E-03 Normal BFGS step
TIMEINFO->: J/JK contribution 13.92 sec.
    2    -343.1844306609      3.66E-04 Normal BFGS step
TIMEINFO->: J/JK contribution 13.86 sec.
    3    -343.1844314047      1.09E-04 Normal BFGS step
TIMEINFO->: J/JK contribution 13.81 sec.
    4    -343.1844314991      1.62E-05 Normal BFGS step
TIMEINFO->: J/JK contribution 13.82 sec.
    5    -343.1844315015      5.62E-06 Normal BFGS step
TIMEINFO->: J/JK contribution 14.08 sec.
    6    -343.1844315017      1.45E-06 Normal BFGS step
TIMEINFO->: J/JK contribution 13.64 sec.
    7    -343.1844315017      2.15E-07 Normal BFGS step
TIMEINFO->: J/JK contribution 13.55 sec.
   GDM::WARNING energy changes are now smaller than effective accuracy.
   GDM::        calculation will continue, but THRESH should be increased
   GDM::        or SCF_CONVERGENCE decreased.
   GDM::        effective_thresh =   9.000000000000000E-011
    8    -343.1844315017      4.11E-08 Normal BFGS step
TIMEINFO->: J/JK contribution 13.40 sec.
   GDM::WARNING energy changes are now smaller than effective accuracy.
   GDM::        calculation will continue, but THRESH should be increased
   GDM::        or SCF_CONVERGENCE decreased.
   GDM::        effective_thresh =   9.000000000000000E-011
    9    -343.1844315017      5.74E-09 Convergence criterion met
 ---------------------------------------
 B3LYP orbitals are now ready for the XYGJ-OS calculation.
 XYGJ-OS energy = Exch (0.7731 HF  + 0.2269 Slater) + 
                  Corr (0.2754 LYP + 0.2309 VWN1RPA + 0.4364 OS-MP2)
 SCF time:  CPU 181.65 s  wall 22.85 s
 SCF   energy in the final basis set = -342.60975507
 Total energy in the final basis set = -342.60975507
 Entering Scaled Opposite Spin MP2
 NBasAux in rimp2.F =          285

 OS-MP2 job begins now...

 SOS scaling factor =  0.4
 Form (P|Q)**(-1/2)...
 
 Form (ia|P)...
 Form BiaQ = (ia|P)*(P|Q)**(-1/2)...
 Laplace quadrature loop begins
 Laplace point 1: correlation energy     =        -0.1624814521
 Laplace point 2: correlation energy     =        -0.1238358918
 Laplace point 3: correlation energy     =        -0.0781315619
 Laplace point 4: correlation energy     =        -0.0670308092
 Laplace point 5: correlation energy     =        -0.0297353268
 Laplace point 6: correlation energy     =        -0.0037170348
 Laplace point 7: correlation energy     =        -0.0000550577
 
 singles contribution not yet available for XYGJ-OS 
 Total OS-MP2 correlation energy         =        -0.4649871343

 Total XYGJ-OS energy                    =      -342.8126754557
 
 ------------------------------------------------------------------------------
                     SOSMP2        : Timing summary (seconds)
 ------------------------------------------------------------------------------
     job step          cpu (% of tot)      sys (% of tot)     wall (% of tot)
 ------------------------------------------------------------------------------
  Form inv (P|Q)    0.6088E+00 ( 8.2)   0.4000E-05 (13.3)   0.7659E-01 ( 8.0)
  Form (ia|P)       0.4501E+01 (60.4)   0.2200E-04 (73.3)   0.5655E+00 (59.2)
  Form  BiaQ        0.2720E+00 ( 3.6)   0.2000E-05 ( 6.7)   0.3415E-01 ( 3.6)
  LP orbitals       0.3134E+00 ( 4.2)   0.1000E-05 ( 3.3)   0.4260E-01 ( 4.5)
  Form  X(PQ)       0.1296E+01 (17.4)   0.1000E-05 ( 3.3)   0.1741E+00 (18.2)
  Increment EMP2    0.3466E+00 ( 4.7)   0.0000E+00 ( 0.0)   0.4775E-01 ( 5.0)
 ------------------------------------------------------------------------------
   Grand Totals     0.7453E+01          0.3000E-04          0.9553E+00
 ------------------------------------------------------------------------------
 
 --------------------------------------------------------------
 
                    Orbital Energies (a.u.)
 --------------------------------------------------------------
 
 Alpha MOs
 -- Occupied --
-77.053  -6.548  -4.708  -4.708  -4.704  -0.647  -0.388  -0.388
 -0.282
 -- Virtual --
 -0.014   0.009   0.009   0.026   0.026   0.044   0.078   0.091
  0.091   0.101   0.101   0.104   0.198   0.198   0.205   0.235
  0.235   0.247   0.254   0.254   0.255   0.290   0.290   0.290
  0.400   0.400   0.403   0.483   0.483   0.497   0.498   0.533
  0.582   0.582   0.614   0.627   0.627   0.644   0.644   0.706
  0.776   0.776   0.821   0.832   0.854   0.854   0.881   0.881
  0.892   0.987   0.987   1.004   1.042   1.042   1.059   1.059
  1.106   1.132   1.304   1.304   1.315   1.351   1.352   1.352
  1.427   1.427   1.503   1.541   1.541   1.632   1.684   1.856
  1.856   1.917   2.000   2.000   2.037   2.118   2.118   2.249
  2.472   2.472   2.846   3.149   3.149   3.375   3.612   3.612
  3.624   3.684   3.684   3.818   3.818   3.821   3.899   3.951
  4.090   4.090   4.148   4.166   4.166   4.202   4.318   4.318
  4.343   4.435   4.435   4.851   4.851   5.077   7.079   7.079
  7.088   7.921   7.921   9.802   9.971   9.971  12.418  26.285
 26.291  26.298  26.298  26.305  26.306  26.306  32.544  32.544
 32.551  32.950  32.950  41.164  41.349  41.349  71.354
 --------------------------------------------------------------
 
          Ground-State Mulliken Net Atomic Charges

     Atom                 Charge (a.u.)
  ----------------------------------------
      1 P                    -0.164125
      2 H                     0.054698
      3 H                     0.054714
      4 H                     0.054714
  ----------------------------------------
  Sum of atomic charges =     0.000000

 -----------------------------------------------------------------
                    Cartesian Multipole Moments
 -----------------------------------------------------------------
    Charge (ESU x 10^10)
                 0.0000
    Dipole Moment (Debye)
         X      -0.0000      Y       0.0000      Z      -0.5693
       Tot       0.5693
    Quadrupole Moments (Debye-Ang)
        XX     -14.8747     XY      -0.0000     YY     -14.8746
        XZ       0.0000     YZ      -0.0000     ZZ     -16.9118
    Octopole Moments (Debye-Ang^2)
       XXX      -0.0000    XXY      -0.0058    XYY      -0.0000
       YYY       0.0059    XXZ       1.7257    XYZ       0.0000
       YYZ       1.7257    XZZ      -0.0000    YZZ       0.0001
       ZZZ       5.6005
    Hexadecapole Moments (Debye-Ang^3)
      XXXX     -31.9704   XXXY      -0.0000   XXYY     -10.6569
      XYYY      -0.0000   YYYY     -31.9712   XXXZ       0.0000
      XXYZ      -0.5557   XYYZ       0.0000   YYYZ       0.5556
      XXZZ     -11.3719   XYZZ      -0.0000   YYZZ     -11.3720
      XZZZ       0.0000   YZZZ      -0.0001   ZZZZ     -38.2296
 -----------------------------------------------------------------
Archival summary:
1\1\n0095.mhg0\SP\ProcedureUnspecified\BasisUnspecified\13\yhljason\WedOct2103:32:352020WedOct2103:32:352020\0\\#,ProcedureUnspecified,BasisUnspecified,\\0,1\P\H,1,1.42097\H,1,1.42097,2,93.3007\H,1,1.421,2,93.3031,3,-93.5051,0\\\@

 Total job time:  24.48s(wall), 193.96s(cpu) 
 Wed Oct 21 03:32:35 2020

        *************************************************************
        *                                                           *
        *  Thank you very much for using Q-Chem.  Have a nice day.  *
        *                                                           *
        *************************************************************


