Q-Chem Developer Version!
                  Welcome to Q-Chem
     A Quantum Leap Into The Future Of Chemistry


 Q-Chem 5.1, Q-Chem, Inc., Pleasanton, CA (2018)

 Yihan Shao,  Zhengting Gan,  E. Epifanovsky,  A. T. B. Gilbert,  M. Wormit,  
 J. Kussmann,  A. W. Lange,  A. Behn,  Jia Deng,  Xintian Feng,  D. Ghosh,  
 M. Goldey,  P. R. Horn,  L. D. Jacobson,  I. Kaliman,  T. Kus,  A. Landau,  
 Jie Liu,  E. I. Proynov,  R. M. Richard,  R. P. Steele,  E. J. Sundstrom,  
 H. L. Woodcock III,  P. M. Zimmerman,  D. Zuev,  B. Albrecht,  E. Alguire,  
 S. A. Baeppler,  D. Barton,  Z. Benda,  Y. A. Bernard,  E. J. Berquist,  
 K. B. Bravaya,  H. Burton,  D. Casanova,  Chun-Min Chang,  Yunqing Chen,  
 A. Chien,  K. D. Closser,  M. P. Coons,  S. Coriani,  S. Dasgupta,  
 A. L. Dempwolff,  M. Diedenhofen,  Hainam Do,  R. G. Edgar,  Po-Tung Fang,  
 S. Faraji,  S. Fatehi,  Qingguo Feng,  K. D. Fenk,  J. Fosso-Tande,  
 Qinghui Ge,  A. Ghysels,  G. Gidofalvi,  J. Gomes,  J. Gonthier,  A. Gunina,  
 D. Hait,  M. W. D. Hanson-Heine,  P. H. P. Harbach,  A. W. Hauser,  
 J. E. Herr,  E. G. Hohenstein,  Z. C. Holden,  Kerwin Hui,  B. C. Huynh,  
 T.-C. Jagau,  Hyunjun Ji,  B. Kaduk,  K. Khistyaev,  Jaehoon Kim,  
 P. Klunzinger,  K. Koh,  D. Kosenkov,  L. Koulias,  T. Kowalczyk,  
 C. M. Krauter,  A. Kunitsa,  Ka Un Lao,  A. Laurent,  K. V. Lawler,  
 Joonho Lee,  D. Lefrancois,  S. Lehtola,  D. S. Levine,  Yi-Pei Li,  
 You-Sheng Lin,  Fenglai Liu,  E. Livshits,  A. Luenser,  P. Manohar,  
 E. Mansoor,  S. F. Manzer,  Shan-Ping Mao,  Yuezhi Mao,  N. Mardirossian,  
 A. V. Marenich,  T. Markovich,  L. A. Martinez-Martinez,  S. A. Maurer,  
 N. J. Mayhall,  S. C. McKenzie,  J.-M. Mewes,  A. F. Morrison,  
 J. W. Mullinax,  K. Nanda,  T. S. Nguyen-Beck,  R. Olivares-Amaya,  
 J. A. Parkhill,  T. M. Perrine,  F. Plasser,  P. Pokhilko,  S. Prager,  
 A. Prociuk,  E. Ramos,  D. R. Rehn,  F. Rob,  M. Schneider,  N. Sergueev,  
 S. M. Sharada,  S. Sharma,  D. W. Small,  T. Stauch,  T. Stein,  
 Yu-Chuan Su,  A. J. W. Thom,  A. Tkatchenko,  T. Tsuchimochi,  N. M. Tubman,  
 L. Vogt,  M. L. Vidal,  O. Vydrov,  M. A. Watson,  J. Wenzel,  
 M. de Wergifosse,  T. A. Wesolowski,  A. White,  J. Witte,  A. Yamada,  
 Jun Yang,  K. Yao,  S. Yeganeh,  S. R. Yost,  Zhi-Qiang You,  A. Zech,  
 Igor Ying Zhang,  Xing Zhang,  Yan Zhao,  Ying Zhu,  B. R. Brooks,  
 G. K. L. Chan,  C. J. Cramer,  M. S. Gordon,  W. J. Hehre,  A. Klamt,  
 M. W. Schmidt,  C. D. Sherrill,  D. G. Truhlar,  A. Aspuru-Guzik,  R. Baer,  
 A. T. Bell,  N. A. Besley,  Jeng-Da Chai,  A. E. DePrince, III,  
 R. A. DiStasio Jr.,  A. Dreuw,  B. D. Dunietz,  T. R. Furlani,  
 Chao-Ping Hsu,  Yousung Jung,  Jing Kong,  D. S. Lambrecht,  WanZhen Liang,  
 C. Ochsenfeld,  V. A. Rassolov,  L. V. Slipchenko,  J. E. Subotnik,  
 T. Van Voorhis,  J. M. Herbert,  A. I. Krylov,  P. M. W. Gill,  M. Head-Gordon

 Contributors to earlier versions of Q-Chem not listed above: 
 R. D. Adamson,  B. Austin,  J. Baker,  G. J. O. Beran,  K. Brandhorst,  
 S. T. Brown,  E. F. C. Byrd,  A. K. Chakraborty,  C.-L. Cheng,  
 Siu Hung Chien,  D. M. Chipman,  D. L. Crittenden,  H. Dachsel,  
 R. J. Doerksen,  A. D. Dutoi,  L. Fusti-Molnar,  W. A. Goddard III,  
 A. Golubeva-Zadorozhnaya,  S. R. Gwaltney,  G. Hawkins,  A. Heyden,  
 S. Hirata,  G. Kedziora,  F. J. Keil,  C. Kelley,  Jihan Kim,  R. A. King,  
 R. Z. Khaliullin,  P. P. Korambath,  W. Kurlancheek,  A. M. Lee,  M. S. Lee,  
 S. V. Levchenko,  Ching Yeh Lin,  D. Liotard,  R. C. Lochan,  I. Lotan,  
 P. E. Maslen,  N. Nair,  D. P. O'Neill,  D. Neuhauser,  E. Neuscamman,  
 C. M. Oana,  R. Olson,  B. Peters,  R. Peverati,  P. A. Pieniazek,  
 Y. M. Rhee,  J. Ritchie,  M. A. Rohrdanz,  E. Rosta,  N. J. Russ,  
 H. F. Schaefer III,  N. E. Schultz,  N. Shenvi,  A. C. Simmonett,  A. Sodt,  
 D. Stuck,  K. S. Thanthiriwatte,  V. Vanovschi,  Tao Wang,  A. Warshel,  
 C. F. Williams,  Q. Wu,  X. Xu,  W. Zhang

 Please cite Q-Chem as follows:
 Y. Shao et al., Mol. Phys. 113, 184-215 (2015)
 DOI: 10.1080/00268976.2014.952696

 Q-Chem 5.1.1 for Intel X86 EM64T Linux

 Parts of Q-Chem use Armadillo 8.300.2 (Tropical Shenanigans).
 http://arma.sourceforge.net/

 Q-Chem begins on Sat Nov 14 21:35:32 2020  

Host: n0098.mhg0
0

     Scratch files written to /local/scratch/users/yhljason/SF2_wB97M2_aug-cc-pcVQZ.inp20201114211643//
Input Ideriv = 2
Curr. Ideriv = -1
Max.  Ideriv = 2
Input Ideriv = 1
Curr. Ideriv = 2
Max.  Ideriv = 1

Checking the input file for inconsistencies... 	...done.

--------------------------------------------------------------
User input:
--------------------------------------------------------------
$molecule
0 1
S1      0.0000  0.0000  0.5511
F2      0.0000  1.1985  -0.4899
F3      0.0000  -1.1985 -0.4899
$end

$rem
jobtype sp
method wB97M-V
xc_grid 000099000590
basis aug-cc-pcVQZ
max_scf_cycles 200
thresh 14
scf_convergence 8
scf_algorithm gdm
symmetry false
sym_ignore true
unrestricted false
gen_scfman true
internal_stability_iter 15
internal_stability_davidson_iter 200
mem_total 128000
n_frozen_core 0
$end



--------------------------------------------------------------
 ----------------------------------------------------------------
             Standard Nuclear Orientation (Angstroms)
    I     Atom           X                Y                Z
 ----------------------------------------------------------------
    1      S       0.0000000000     0.0000000000     0.5511000000
    2      F       0.0000000000     1.1985000000    -0.4899000000
    3      F       0.0000000000    -1.1985000000    -0.4899000000
 ----------------------------------------------------------------
 Nuclear Repulsion Energy =   113.8853868052 hartrees
 There are       17 alpha and       17 beta electrons
 Requested basis set is aug-cc-pCVQZ
 There are 92 shells and 352 basis functions

 Total QAlloc2 of 14 
 
Q-Chem Developer Version!
                  Welcome to Q-Chem
     A Quantum Leap Into The Future Of Chemistry


 Q-Chem 5.1, Q-Chem, Inc., Pleasanton, CA (2018)

 Yihan Shao,  Zhengting Gan,  E. Epifanovsky,  A. T. B. Gilbert,  M. Wormit,  
 J. Kussmann,  A. W. Lange,  A. Behn,  Jia Deng,  Xintian Feng,  D. Ghosh,  
 M. Goldey,  P. R. Horn,  L. D. Jacobson,  I. Kaliman,  T. Kus,  A. Landau,  
 Jie Liu,  E. I. Proynov,  R. M. Richard,  R. P. Steele,  E. J. Sundstrom,  
 H. L. Woodcock III,  P. M. Zimmerman,  D. Zuev,  B. Albrecht,  E. Alguire,  
 S. A. Baeppler,  D. Barton,  Z. Benda,  Y. A. Bernard,  E. J. Berquist,  
 K. B. Bravaya,  H. Burton,  D. Casanova,  Chun-Min Chang,  Yunqing Chen,  
 A. Chien,  K. D. Closser,  M. P. Coons,  S. Coriani,  S. Dasgupta,  
 A. L. Dempwolff,  M. Diedenhofen,  Hainam Do,  R. G. Edgar,  Po-Tung Fang,  
 S. Faraji,  S. Fatehi,  Qingguo Feng,  K. D. Fenk,  J. Fosso-Tande,  
 Qinghui Ge,  A. Ghysels,  G. Gidofalvi,  J. Gomes,  J. Gonthier,  A. Gunina,  
 D. Hait,  M. W. D. Hanson-Heine,  P. H. P. Harbach,  A. W. Hauser,  
 J. E. Herr,  E. G. Hohenstein,  Z. C. Holden,  Kerwin Hui,  B. C. Huynh,  
 T.-C. Jagau,  Hyunjun Ji,  B. Kaduk,  K. Khistyaev,  Jaehoon Kim,  
 P. Klunzinger,  K. Koh,  D. Kosenkov,  L. Koulias,  T. Kowalczyk,  
 C. M. Krauter,  A. Kunitsa,  Ka Un Lao,  A. Laurent,  K. V. Lawler,  
 Joonho Lee,  D. Lefrancois,  S. Lehtola,  D. S. Levine,  Yi-Pei Li,  
 You-Sheng Lin,  Fenglai Liu,  E. Livshits,  A. Luenser,  P. Manohar,  
 E. Mansoor,  S. F. Manzer,  Shan-Ping Mao,  Yuezhi Mao,  N. Mardirossian,  
 A. V. Marenich,  T. Markovich,  L. A. Martinez-Martinez,  S. A. Maurer,  
 N. J. Mayhall,  S. C. McKenzie,  J.-M. Mewes,  A. F. Morrison,  
 J. W. Mullinax,  K. Nanda,  T. S. Nguyen-Beck,  R. Olivares-Amaya,  
 J. A. Parkhill,  T. M. Perrine,  F. Plasser,  P. Pokhilko,  S. Prager,  
 A. Prociuk,  E. Ramos,  D. R. Rehn,  F. Rob,  M. Schneider,  N. Sergueev,  
 S. M. Sharada,  S. Sharma,  D. W. Small,  T. Stauch,  T. Stein,  
 Yu-Chuan Su,  A. J. W. Thom,  A. Tkatchenko,  T. Tsuchimochi,  N. M. Tubman,  
 L. Vogt,  M. L. Vidal,  O. Vydrov,  M. A. Watson,  J. Wenzel,  
 M. de Wergifosse,  T. A. Wesolowski,  A. White,  J. Witte,  A. Yamada,  
 Jun Yang,  K. Yao,  S. Yeganeh,  S. R. Yost,  Zhi-Qiang You,  A. Zech,  
 Igor Ying Zhang,  Xing Zhang,  Yan Zhao,  Ying Zhu,  B. R. Brooks,  
 G. K. L. Chan,  C. J. Cramer,  M. S. Gordon,  W. J. Hehre,  A. Klamt,  
 M. W. Schmidt,  C. D. Sherrill,  D. G. Truhlar,  A. Aspuru-Guzik,  R. Baer,  
 A. T. Bell,  N. A. Besley,  Jeng-Da Chai,  A. E. DePrince, III,  
 R. A. DiStasio Jr.,  A. Dreuw,  B. D. Dunietz,  T. R. Furlani,  
 Chao-Ping Hsu,  Yousung Jung,  Jing Kong,  D. S. Lambrecht,  WanZhen Liang,  
 C. Ochsenfeld,  V. A. Rassolov,  L. V. Slipchenko,  J. E. Subotnik,  
 T. Van Voorhis,  J. M. Herbert,  A. I. Krylov,  P. M. W. Gill,  M. Head-Gordon

 Contributors to earlier versions of Q-Chem not listed above: 
 R. D. Adamson,  B. Austin,  J. Baker,  G. J. O. Beran,  K. Brandhorst,  
 S. T. Brown,  E. F. C. Byrd,  A. K. Chakraborty,  C.-L. Cheng,  
 Siu Hung Chien,  D. M. Chipman,  D. L. Crittenden,  H. Dachsel,  
 R. J. Doerksen,  A. D. Dutoi,  L. Fusti-Molnar,  W. A. Goddard III,  
 A. Golubeva-Zadorozhnaya,  S. R. Gwaltney,  G. Hawkins,  A. Heyden,  
 S. Hirata,  G. Kedziora,  F. J. Keil,  C. Kelley,  Jihan Kim,  R. A. King,  
 R. Z. Khaliullin,  P. P. Korambath,  W. Kurlancheek,  A. M. Lee,  M. S. Lee,  
 S. V. Levchenko,  Ching Yeh Lin,  D. Liotard,  R. C. Lochan,  I. Lotan,  
 P. E. Maslen,  N. Nair,  D. P. O'Neill,  D. Neuhauser,  E. Neuscamman,  
 C. M. Oana,  R. Olson,  B. Peters,  R. Peverati,  P. A. Pieniazek,  
 Y. M. Rhee,  J. Ritchie,  M. A. Rohrdanz,  E. Rosta,  N. J. Russ,  
 H. F. Schaefer III,  N. E. Schultz,  N. Shenvi,  A. C. Simmonett,  A. Sodt,  
 D. Stuck,  K. S. Thanthiriwatte,  V. Vanovschi,  Tao Wang,  A. Warshel,  
 C. F. Williams,  Q. Wu,  X. Xu,  W. Zhang

 Please cite Q-Chem as follows:
 Y. Shao et al., Mol. Phys. 113, 184-215 (2015)
 DOI: 10.1080/00268976.2014.952696

 Q-Chem 5.1.1 for Intel X86 EM64T Linux

 Parts of Q-Chem use Armadillo 8.300.2 (Tropical Shenanigans).
 http://arma.sourceforge.net/

 Q-Chem begins on Sat Nov 14 22:50:50 2020  

Host: n0098.mhg0
0

     Scratch files written to /local/scratch/users/yhljason/SF2_wB97M2_aug-cc-pcVQZ.inp20201114211643//
The previous job contains 0 fragments, simply inherited here
Input Ideriv = 0
Curr. Ideriv = -1
Max.  Ideriv = 0
Analytic post-HF gradients are not available with non-HF exchange
Input Ideriv = 0
Curr. Ideriv = 0
Max.  Ideriv = 0

Checking the input file for inconsistencies... 	...done.

--------------------------------------------------------------
User input:
--------------------------------------------------------------
$molecule
read
$end

$rem
jobtype sp
exchange wB97M(2)
xc_grid 000099000590
basis aug-cc-pcVQZ
max_scf_cycles 200
thresh 14
scf_convergence 8
scf_algorithm gdm
symmetry false
sym_ignore true
unrestricted false
gen_scfman false
mem_total 128000
cc_memory 96000
cc_backend xm
mem_static 1500
n_frozen_core 0
scf_guess read
$end



--------------------------------------------------------------
 ----------------------------------------------------------------
             Standard Nuclear Orientation (Angstroms)
    I     Atom           X                Y                Z
 ----------------------------------------------------------------
    1      S       0.0000000000     0.0000000000     0.5511000000
    2      F       0.0000000000     1.1985000000    -0.4899000000
    3      F       0.0000000000    -1.1985000000    -0.4899000000
 ----------------------------------------------------------------
 Nuclear Repulsion Energy =   113.8853868052 hartrees
 There are       17 alpha and       17 beta electrons
 Requested basis set is aug-cc-pCVQZ
 There are 92 shells and 352 basis functions

 Total QAlloc Memory Limit 128000 MB
 Mega-Array Size      1467 MB
 MEM_STATIC part      1500 MB

                       Distance Matrix (Angstroms)
             S (  1)   F (  2)
   F (  2)  1.587477
   F (  3)  1.587477  2.397000
 
 A cutoff of  1.0D-14 yielded   3865 shell pairs
 There are     57969 function pairs (     96515 Cartesian)
 
 -------------------------------------------------------
 OpenMP Integral Computing Module                       
 Release: version 1.0, May 2013, Q-Chem Inc. Pittsburgh 
 -------------------------------------------------------
 Integral Job Info:
 Integral job number is                      11
 Integral operator is                         1
 short-range coefficients              15000000
 long-range coefficients              100000000
 Omega coefficients                         300
 if combine SR and LR in K                    1
 Integral screening is                        0
 Integral computing path is                   2
 max size of driver memory is           3200000
 size of driver memory is               1704330
 size of scratch memory is             28840424
 max col of scratch BK array              50625
 max len of scratch array in speh3         2114
 max len of scratch index in speh4           50
 max int batch size is                      520
 min int batch size is                       52
 fixed nKL is                                21
 max L of basis functions is                  4
 order of int derivative is                   0
 number of shells is                         92
 number of basis is                         452
 number of cartesian basis is               452
 number of contracted shell pairs          3865
 number of primitive shell pairs          11740
 maxK2 (contraction) of shell pair          169
 max number of K2 of shell pair               1
 max number of CS2 of shell pair            403
 max number of PS2 of shell pair           1014
 mem total for path MDJ                  866296
 -------------------------------------------------------
 Smallest overlap matrix eigenvalue = 2.68E-05

 Scale SEOQF with 1.000000e-01/1.000000e-01/1.000000e-01

 Standard Electronic Orientation quadrupole field applied
 Nucleus-field energy     =     0.0000000009 hartrees
 Guess MOs from SCF MO coefficient file
 Reading MOs from coefficient file
 Reading MOs from coefficient file
 Long-range K will be added via erf
 Coulomb attenuation parameter = 0.3 bohr**(-1)
 A restricted hybrid HF-DFT SCF calculation will be
 performed using Geometric Direct Minimization
 Exchange:     0.1500 Hartree-Fock + 1.0000 wB97M-V + LR-HF
 Correlation:  1.0000 wB97M-V
 Using Euler-Maclaurin-Lebedev (99,590) quadrature formula
 Nonlocal Correlation:  VV10 with C = 0.0100 and b = 6.00 and scale = 1.00000
 Grid used for NLC:  SG-1 standard quadrature
 SCF converges when RMS gradient is below 1.0E-08
Using Q-Chem read-in guess as SCF_GUESS READ specified.

 using 8 threads for integral computing
 -------------------------------------------------------
 OpenMP Integral computing Module                
 Release: version 1.0, May 2013, Q-Chem Inc. Pittsburgh 
 -------------------------------------------------------
 using 8 threads for integral computing
 -------------------------------------------------------
 OpenMP Integral computing Module                
 Release: version 1.0, May 2013, Q-Chem Inc. Pittsburgh 
 -------------------------------------------------------
TIMEINFO->: J/JK contribution 465.87 sec.
 -------------------------------------------------------
 OpenMP BLAS3 based DFT computing Module                
 Release: version 1.0, May 2013, Q-Chem Inc. Pittsburgh 
 -------------------------------------------------------
 -------------------------------------------------------
 OpenMP BLAS3 based DFT computing Module                
 Release: version 1.0, May 2013, Q-Chem Inc. Pittsburgh 
 -------------------------------------------------------
 -------------------------------------------------------
 OpenMP BLAS3 based DFT computing Module                
 Release: version 1.0, May 2013, Q-Chem Inc. Pittsburgh 
 -------------------------------------------------------
 ---------------------------------------
  Cycle       Energy        RMS Gradient
 ---------------------------------------
    1    -597.8896465060      6.80E-10 Normal BFGS step
TIMEINFO->: J/JK contribution 461.42 sec.
   GDM::WARNING energy changes are now smaller than effective accuracy.
   GDM::        calculation will continue, but THRESH should be increased
   GDM::        or SCF_CONVERGENCE decreased.
   GDM::        effective_thresh =   1.700000000000000E-010
 Nonlocal correlation =     0.0457500375
    2    -597.8896465060      3.78E-10 Convergence criterion met
 ---------------------------------------
 wB97M-V orbitals are now ready for the wB97M(2) calculation.
 wB97M(2) energy = Exch (0.62194 SRHF + 1.0 LRHF + wB97M(2)_EXCH) + 
               Corr (wB97M(2)_CORR + 0.34096 MP2 + 0.65904 VV10(b=10))
 SCF time:  CPU 1787.87 s  wall 225.74 s
 SCF   energy in the final basis set = -597.67384707
 Total energy in the final basis set = -597.67384707
 
 Components of the MP2 correlation energy:
        aaaa  correlation energy =        -0.0608300697 au
        abab  correlation energy =        -0.3704606017 au
        bbbb  correlation energy =        -0.0608300697 au
        non-Brillouin singles    =        -0.0000000000 au

 Total  MP2   correlation energy =                    -0.49212074 au
        MP2         total energy =                  -598.16596781 au
 
 --------------------------------------------------------------
 
                    Orbital Energies (a.u.)
 --------------------------------------------------------------
 
 Alpha MOs
 -- Occupied --
-89.323 -24.952 -24.952  -8.242  -6.156  -6.152  -6.139  -1.410
 -1.369  -0.866  -0.685  -0.647  -0.632  -0.584  -0.564  -0.539
 -0.352
 -- Virtual --
  0.006   0.029   0.037   0.055   0.072   0.093   0.122   0.150
  0.157   0.163   0.166   0.212   0.224   0.229   0.234   0.246
  0.258   0.271   0.322   0.362   0.369   0.429   0.460   0.468
  0.470   0.479   0.495   0.532   0.540   0.543   0.572   0.580
  0.587   0.656   0.718   0.724   0.732   0.734   0.734   0.740
  0.771   0.788   0.797   0.819   0.861   0.993   0.996   1.007
  1.023   1.082   1.113   1.187   1.196   1.242   1.247   1.267
  1.285   1.285   1.364   1.365   1.378   1.395   1.419   1.437
  1.456   1.466   1.484   1.485   1.514   1.614   1.653   1.677
  1.715   1.775   1.794   1.831   1.873   1.903   1.927   1.971
  1.988   2.005   2.044   2.092   2.181   2.185   2.226   2.247
  2.248   2.250   2.304   2.330   2.414   2.468   2.471   2.525
  2.684   2.728   2.731   2.731   2.750   2.787   3.090   3.091
  3.116   3.133   3.218   3.293   3.299   3.342   3.356   3.382
  3.403   3.409   3.440   3.456   3.515   3.537   3.574   3.603
  3.657   3.703   3.780   3.975   4.108   4.113   4.203   4.446
  4.451   4.506   4.512   4.563   4.610   4.636   4.655   4.677
  4.730   4.799   4.928   5.066   5.083   5.091   5.134   5.149
  5.207   5.231   5.257   5.283   5.302   5.303   5.355   5.375
  5.403   5.464   5.470   5.481   5.490   5.504   5.543   5.581
  5.639   5.695   5.705   5.790   5.840   5.875   5.885   6.127
  6.439   6.462   6.500   6.511   6.517   6.636   6.728   7.007
  8.791   9.700   9.732   9.823  10.314  10.650  11.431  11.466
 11.537  11.640  12.687  12.767  13.169  13.180  13.201  13.206
 13.218  13.258  13.293  13.311  13.408  13.480  13.498  13.518
 13.551  13.580  13.593  13.648  13.670  13.695  15.295  15.331
 15.337  15.361  15.442  15.467  15.479  15.501  15.528  15.537
 15.580  15.626  15.718  15.732  15.901  16.142  16.198  16.220
 16.237  16.398  16.647  16.661  16.666  16.721  16.795  16.862
 16.884  18.171  18.265  18.360  18.389  18.440  18.777  18.822
 21.188  21.194  28.356  31.237  31.264  31.333  31.548  31.921
 40.698  40.723  40.757  40.882  41.782  41.842  45.504  46.063
 46.339  55.076  55.077  55.079  55.080  55.084  55.087  55.089
 55.090  55.091  59.426  59.450  59.470  59.478  59.722  59.722
 59.750  59.785  59.804  59.825  65.263  65.299  65.338  65.339
 65.380  65.499  65.531  78.767  78.780  82.327  93.100  93.121
 93.171  93.285  93.575  97.204  97.210  97.211  97.215  97.218
 97.222  97.227  97.232  97.232  97.239  97.242  97.251  97.276
 97.279 144.198 144.222 144.242 144.346 144.856 144.897 144.947
145.412 145.605 250.130 250.144 250.153 250.161 250.290 250.290
250.307 250.325 250.334 250.346 269.452 269.469 389.394 493.814
493.829 493.845 493.932 494.515 494.5551121.1051121.129
 --------------------------------------------------------------
 
          Ground-State Mulliken Net Atomic Charges

     Atom                 Charge (a.u.)
  ----------------------------------------
      1 S                     0.787956
      2 F                    -0.393978
      3 F                    -0.393978
  ----------------------------------------
  Sum of atomic charges =    -0.000000

 -----------------------------------------------------------------
                    Cartesian Multipole Moments
 -----------------------------------------------------------------
    Charge (ESU x 10^10)
                -0.0000
    Dipole Moment (Debye)
         X       0.0000      Y       0.0000      Z       1.0240
       Tot       1.0240
    Quadrupole Moments (Debye-Ang)
        XX     -23.4770     XY      -0.0000     YY     -22.9197
        XZ      -0.0000     YZ      -0.0000     ZZ     -21.6638
    Octopole Moments (Debye-Ang^2)
       XXX      -0.0000    XXY      -0.0000    XYY       0.0000
       YYY       0.0000    XXZ      -3.8518    XYZ       0.0000
       YYZ       0.0188    XZZ       0.0000    YZZ       0.0000
       ZZZ      -5.2022
    Hexadecapole Moments (Debye-Ang^3)
      XXXX     -26.5367   XXXY      -0.0000   XXYY     -21.5206
      XYYY      -0.0000   YYYY    -105.5779   XXXZ      -0.0000
      XXYZ      -0.0000   XYYZ      -0.0000   YYYZ      -0.0000
      XXZZ     -15.5401   XYZZ      -0.0000   YYZZ     -25.5146
      XZZZ      -0.0000   YZZZ      -0.0000   ZZZZ     -56.1436
 -----------------------------------------------------------------
Archival summary:
1\1\n0098.mhg0\SP\ProcedureUnspecified\BasisUnspecified\12\yhljason\SatNov1423:17:012020SatNov1423:17:012020\0\\#,ProcedureUnspecified,BasisUnspecified,\\0,1\S\F,1,1.58748\F,1,1.58748,2,98.0458\\\@

 Total job time:  1571.91s(wall), 12324.43s(cpu) 
 Sat Nov 14 23:17:01 2020

        *************************************************************
        *                                                           *
        *  Thank you very much for using Q-Chem.  Have a nice day.  *
        *                                                           *
        *************************************************************


 
User input: 3 of 144 of 14 
 
Q-Chem Developer Version!
                  Welcome to Q-Chem
     A Quantum Leap Into The Future Of Chemistry


 Q-Chem 5.1, Q-Chem, Inc., Pleasanton, CA (2018)

 Yihan Shao,  Zhengting Gan,  E. Epifanovsky,  A. T. B. Gilbert,  M. Wormit,  
 J. Kussmann,  A. W. Lange,  A. Behn,  Jia Deng,  Xintian Feng,  D. Ghosh,  
 M. Goldey,  P. R. Horn,  L. D. Jacobson,  I. Kaliman,  T. Kus,  A. Landau,  
 Jie Liu,  E. I. Proynov,  R. M. Richard,  R. P. Steele,  E. J. Sundstrom,  
 H. L. Woodcock III,  P. M. Zimmerman,  D. Zuev,  B. Albrecht,  E. Alguire,  
 S. A. Baeppler,  D. Barton,  Z. Benda,  Y. A. Bernard,  E. J. Berquist,  
 K. B. Bravaya,  H. Burton,  D. Casanova,  Chun-Min Chang,  Yunqing Chen,  
 A. Chien,  K. D. Closser,  M. P. Coons,  S. Coriani,  S. Dasgupta,  
 A. L. Dempwolff,  M. Diedenhofen,  Hainam Do,  R. G. Edgar,  Po-Tung Fang,  
 S. Faraji,  S. Fatehi,  Qingguo Feng,  K. D. Fenk,  J. Fosso-Tande,  
 Qinghui Ge,  A. Ghysels,  G. Gidofalvi,  J. Gomes,  J. Gonthier,  A. Gunina,  
 D. Hait,  M. W. D. Hanson-Heine,  P. H. P. Harbach,  A. W. Hauser,  
 J. E. Herr,  E. G. Hohenstein,  Z. C. Holden,  Kerwin Hui,  B. C. Huynh,  
 T.-C. Jagau,  Hyunjun Ji,  B. Kaduk,  K. Khistyaev,  Jaehoon Kim,  
 P. Klunzinger,  K. Koh,  D. Kosenkov,  L. Koulias,  T. Kowalczyk,  
 C. M. Krauter,  A. Kunitsa,  Ka Un Lao,  A. Laurent,  K. V. Lawler,  
 Joonho Lee,  D. Lefrancois,  S. Lehtola,  D. S. Levine,  Yi-Pei Li,  
 You-Sheng Lin,  Fenglai Liu,  E. Livshits,  A. Luenser,  P. Manohar,  
 E. Mansoor,  S. F. Manzer,  Shan-Ping Mao,  Yuezhi Mao,  N. Mardirossian,  
 A. V. Marenich,  T. Markovich,  L. A. Martinez-Martinez,  S. A. Maurer,  
 N. J. Mayhall,  S. C. McKenzie,  J.-M. Mewes,  A. F. Morrison,  
 J. W. Mullinax,  K. Nanda,  T. S. Nguyen-Beck,  R. Olivares-Amaya,  
 J. A. Parkhill,  T. M. Perrine,  F. Plasser,  P. Pokhilko,  S. Prager,  
 A. Prociuk,  E. Ramos,  D. R. Rehn,  F. Rob,  M. Schneider,  N. Sergueev,  
 S. M. Sharada,  S. Sharma,  D. W. Small,  T. Stauch,  T. Stein,  
 Yu-Chuan Su,  A. J. W. Thom,  A. Tkatchenko,  T. Tsuchimochi,  N. M. Tubman,  
 L. Vogt,  M. L. Vidal,  O. Vydrov,  M. A. Watson,  J. Wenzel,  
 M. de Wergifosse,  T. A. Wesolowski,  A. White,  J. Witte,  A. Yamada,  
 Jun Yang,  K. Yao,  S. Yeganeh,  S. R. Yost,  Zhi-Qiang You,  A. Zech,  
 Igor Ying Zhang,  Xing Zhang,  Yan Zhao,  Ying Zhu,  B. R. Brooks,  
 G. K. L. Chan,  C. J. Cramer,  M. S. Gordon,  W. J. Hehre,  A. Klamt,  
 M. W. Schmidt,  C. D. Sherrill,  D. G. Truhlar,  A. Aspuru-Guzik,  R. Baer,  
 A. T. Bell,  N. A. Besley,  Jeng-Da Chai,  A. E. DePrince, III,  
 R. A. DiStasio Jr.,  A. Dreuw,  B. D. Dunietz,  T. R. Furlani,  
 Chao-Ping Hsu,  Yousung Jung,  Jing Kong,  D. S. Lambrecht,  WanZhen Liang,  
 C. Ochsenfeld,  V. A. Rassolov,  L. V. Slipchenko,  J. E. Subotnik,  
 T. Van Voorhis,  J. M. Herbert,  A. I. Krylov,  P. M. W. Gill,  M. Head-Gordon

 Contributors to earlier versions of Q-Chem not listed above: 
 R. D. Adamson,  B. Austin,  J. Baker,  G. J. O. Beran,  K. Brandhorst,  
 S. T. Brown,  E. F. C. Byrd,  A. K. Chakraborty,  C.-L. Cheng,  
 Siu Hung Chien,  D. M. Chipman,  D. L. Crittenden,  H. Dachsel,  
 R. J. Doerksen,  A. D. Dutoi,  L. Fusti-Molnar,  W. A. Goddard III,  
 A. Golubeva-Zadorozhnaya,  S. R. Gwaltney,  G. Hawkins,  A. Heyden,  
 S. Hirata,  G. Kedziora,  F. J. Keil,  C. Kelley,  Jihan Kim,  R. A. King,  
 R. Z. Khaliullin,  P. P. Korambath,  W. Kurlancheek,  A. M. Lee,  M. S. Lee,  
 S. V. Levchenko,  Ching Yeh Lin,  D. Liotard,  R. C. Lochan,  I. Lotan,  
 P. E. Maslen,  N. Nair,  D. P. O'Neill,  D. Neuhauser,  E. Neuscamman,  
 C. M. Oana,  R. Olson,  B. Peters,  R. Peverati,  P. A. Pieniazek,  
 Y. M. Rhee,  J. Ritchie,  M. A. Rohrdanz,  E. Rosta,  N. J. Russ,  
 H. F. Schaefer III,  N. E. Schultz,  N. Shenvi,  A. C. Simmonett,  A. Sodt,  
 D. Stuck,  K. S. Thanthiriwatte,  V. Vanovschi,  Tao Wang,  A. Warshel,  
 C. F. Williams,  Q. Wu,  X. Xu,  W. Zhang

 Please cite Q-Chem as follows:
 Y. Shao et al., Mol. Phys. 113, 184-215 (2015)
 DOI: 10.1080/00268976.2014.952696

 Q-Chem 5.1.1 for Intel X86 EM64T Linux

 Parts of Q-Chem use Armadillo 8.300.2 (Tropical Shenanigans).
 http://arma.sourceforge.net/

 Q-Chem begins on Sat Nov 14 23:27:56 2020  

Host: n0098.mhg0
0

     Scratch files written to /local/scratch/users/yhljason/SF2_wB97M2_aug-cc-pcVQZ.inp20201114211643//
The previous job contains 0 fragments, simply inherited here
Input Ideriv = 0
Curr. Ideriv = -1
Max.  Ideriv = 0
Analytic post-HF gradients are not available with non-HF exchange
Input Ideriv = 0
Curr. Ideriv = 0
Max.  Ideriv = 0

Checking the input file for inconsistencies... 	...done.

--------------------------------------------------------------
User input:
--------------------------------------------------------------
$molecule
read
$end

$rem

jobtype sp
exchange wb97m(2)
xc_grid 000099000590
basis aug-cc-pcVQZ
max_scf_cycles 200
thresh 14
scf_convergence 8
mem_total 128000
cc_memory 96000
cc_backend xm
mem_static 1500
symmetry false
sym_ignore true
scf_guess read
unrestricted false
scf_algorithm gdm
n_frozen_core 0
$end

$multipole_field
XX 0.0001
$end



--------------------------------------------------------------
 ----------------------------------------------------------------
             Standard Nuclear Orientation (Angstroms)
    I     Atom           X                Y                Z
 ----------------------------------------------------------------
    1      S       0.0000000000     0.0000000000     0.5511000000
    2      F       0.0000000000     1.1985000000    -0.4899000000
    3      F       0.0000000000    -1.1985000000    -0.4899000000
 ----------------------------------------------------------------
 Nuclear Repulsion Energy =   113.8853868052 hartrees
 There are       17 alpha and       17 beta electrons
 Requested basis set is aug-cc-pCVQZ
 There are 92 shells and 352 basis functions

 Total QAlloc Memory Limit 128000 MB
 Mega-Array Size      1467 MB
 MEM_STATIC part      1500 MB

                       Distance Matrix (Angstroms)
             S (  1)   F (  2)
   F (  2)  1.587477
   F (  3)  1.587477  2.397000
 
 Applying Cartesian multipole field
    Component          Value
    ---------          -----
     (2,0,0)        1.00000E-04
 A cutoff of  1.0D-14 yielded   3865 shell pairs
 There are     57969 function pairs (     96515 Cartesian)
 
 -------------------------------------------------------
 OpenMP Integral Computing Module                       
 Release: version 1.0, May 2013, Q-Chem Inc. Pittsburgh 
 -------------------------------------------------------
 Integral Job Info:
 Integral job number is                      11
 Integral operator is                         1
 short-range coefficients              15000000
 long-range coefficients              100000000
 Omega coefficients                         300
 if combine SR and LR in K                    1
 Integral screening is                        0
 Integral computing path is                   2
 max size of driver memory is           3200000
 size of driver memory is               1704330
 size of scratch memory is             28840424
 max col of scratch BK array              50625
 max len of scratch array in speh3         2114
 max len of scratch index in speh4           50
 max int batch size is                      520
 min int batch size is                       52
 fixed nKL is                                21
 max L of basis functions is                  4
 order of int derivative is                   0
 number of shells is                         92
 number of basis is                         452
 number of cartesian basis is               452
 number of contracted shell pairs          3865
 number of primitive shell pairs          11740
 maxK2 (contraction) of shell pair          169
 max number of K2 of shell pair               1
 max number of CS2 of shell pair            403
 max number of PS2 of shell pair           1014
 mem total for path MDJ                  866296
 -------------------------------------------------------
 Smallest overlap matrix eigenvalue = 2.68E-05
 Guess MOs from SCF MO coefficient file
 Reading MOs from coefficient file
 Reading MOs from coefficient file
 Long-range K will be added via erf
 Coulomb attenuation parameter = 0.3 bohr**(-1)
 A restricted hybrid HF-DFT SCF calculation will be
 performed using Geometric Direct Minimization
 Exchange:     0.1500 Hartree-Fock + 1.0000 wB97M-V + LR-HF
 Correlation:  1.0000 wB97M-V
 Using Euler-Maclaurin-Lebedev (99,590) quadrature formula
 Nonlocal Correlation:  VV10 with C = 0.0100 and b = 6.00 and scale = 1.00000
 Grid used for NLC:  SG-1 standard quadrature
 SCF converges when RMS gradient is below 1.0E-08
Using Q-Chem read-in guess as SCF_GUESS READ specified.

 using 8 threads for integral computing
 -------------------------------------------------------
 OpenMP Integral computing Module                
 Release: version 1.0, May 2013, Q-Chem Inc. Pittsburgh 
 -------------------------------------------------------
 using 8 threads for integral computing
 -------------------------------------------------------
 OpenMP Integral computing Module                
 Release: version 1.0, May 2013, Q-Chem Inc. Pittsburgh 
 -------------------------------------------------------
TIMEINFO->: J/JK contribution 451.52 sec.
 -------------------------------------------------------
 OpenMP BLAS3 based DFT computing Module                
 Release: version 1.0, May 2013, Q-Chem Inc. Pittsburgh 
 -------------------------------------------------------
 -------------------------------------------------------
 OpenMP BLAS3 based DFT computing Module                
 Release: version 1.0, May 2013, Q-Chem Inc. Pittsburgh 
 -------------------------------------------------------
 -------------------------------------------------------
 OpenMP BLAS3 based DFT computing Module                
 Release: version 1.0, May 2013, Q-Chem Inc. Pittsburgh 
 -------------------------------------------------------
 ---------------------------------------
  Cycle       Energy        RMS Gradient
 ---------------------------------------
    1    -597.8913926272      8.07E-10 Normal BFGS step
TIMEINFO->: J/JK contribution 467.94 sec.
   GDM::WARNING energy changes are now smaller than effective accuracy.
   GDM::        calculation will continue, but THRESH should be increased
   GDM::        or SCF_CONVERGENCE decreased.
   GDM::        effective_thresh =   1.700000000000000E-010
 Nonlocal correlation =     0.0457495955
    2    -597.8913926272      5.76E-10 Convergence criterion met
 ---------------------------------------
 wB97M-V orbitals are now ready for the wB97M(2) calculation.
 wB97M(2) energy = Exch (0.62194 SRHF + 1.0 LRHF + wB97M(2)_EXCH) + 
               Corr (wB97M(2)_CORR + 0.34096 MP2 + 0.65904 VV10(b=10))
 SCF time:  CPU 1786.76 s  wall 230.71 s
 SCF   energy in the final basis set = -597.67557123
 Total energy in the final basis set = -597.67557123
 
 Components of the MP2 correlation energy:
        aaaa  correlation energy =        -0.0608330897 au
        abab  correlation energy =        -0.3704683125 au
        bbbb  correlation energy =        -0.0608330897 au
        non-Brillouin singles    =        -0.0000000000 au

 Total  MP2   correlation energy =                    -0.49213449 au
        MP2         total energy =                  -598.16770572 au
 
 --------------------------------------------------------------
 
                    Orbital Energies (a.u.)
 --------------------------------------------------------------
 
 Alpha MOs
 -- Occupied --
-89.323 -24.952 -24.952  -8.243  -6.156  -6.152  -6.140  -1.411
 -1.370  -0.866  -0.685  -0.648  -0.633  -0.584  -0.565  -0.540
 -0.352
 -- Virtual --
  0.005   0.028   0.036   0.052   0.070   0.092   0.121   0.149
  0.156   0.161   0.164   0.212   0.222   0.228   0.233   0.245
  0.257   0.270   0.321   0.361   0.369   0.429   0.459   0.467
  0.469   0.478   0.494   0.531   0.540   0.543   0.571   0.579
  0.586   0.655   0.718   0.724   0.731   0.733   0.734   0.739
  0.771   0.788   0.796   0.819   0.860   0.992   0.995   1.007
  1.022   1.081   1.113   1.187   1.195   1.242   1.246   1.267
  1.284   1.285   1.364   1.364   1.377   1.395   1.418   1.436
  1.456   1.466   1.484   1.484   1.514   1.614   1.653   1.677
  1.715   1.775   1.794   1.831   1.873   1.902   1.927   1.971
  1.987   2.005   2.043   2.091   2.180   2.184   2.225   2.246
  2.248   2.249   2.304   2.330   2.414   2.468   2.471   2.525
  2.684   2.728   2.730   2.731   2.750   2.787   3.089   3.091
  3.116   3.133   3.217   3.293   3.298   3.342   3.356   3.382
  3.403   3.409   3.440   3.455   3.515   3.537   3.573   3.603
  3.657   3.703   3.780   3.975   4.108   4.113   4.203   4.446
  4.450   4.505   4.512   4.563   4.609   4.636   4.655   4.677
  4.730   4.798   4.927   5.065   5.083   5.090   5.134   5.149
  5.206   5.231   5.256   5.283   5.302   5.302   5.354   5.375
  5.403   5.464   5.470   5.481   5.490   5.503   5.543   5.581
  5.639   5.695   5.705   5.790   5.840   5.875   5.885   6.127
  6.439   6.462   6.500   6.511   6.517   6.636   6.728   7.007
  8.791   9.699   9.732   9.823  10.314  10.650  11.430  11.466
 11.536  11.639  12.686  12.766  13.169  13.180  13.201  13.205
 13.218  13.257  13.293  13.311  13.408  13.480  13.497  13.518
 13.551  13.580  13.593  13.648  13.670  13.695  15.295  15.331
 15.336  15.361  15.441  15.466  15.479  15.501  15.528  15.537
 15.580  15.625  15.717  15.732  15.901  16.141  16.198  16.220
 16.237  16.398  16.647  16.660  16.666  16.721  16.795  16.861
 16.884  18.171  18.265  18.360  18.389  18.440  18.777  18.822
 21.187  21.194  28.355  31.237  31.264  31.333  31.547  31.921
 40.698  40.723  40.757  40.882  41.782  41.842  45.504  46.062
 46.338  55.076  55.077  55.079  55.080  55.083  55.087  55.088
 55.090  55.090  59.426  59.450  59.470  59.478  59.721  59.722
 59.750  59.785  59.804  59.825  65.263  65.298  65.338  65.338
 65.379  65.499  65.530  78.767  78.780  82.327  93.099  93.120
 93.171  93.284  93.575  97.204  97.210  97.210  97.215  97.218
 97.222  97.227  97.231  97.232  97.238  97.242  97.251  97.276
 97.279 144.197 144.222 144.242 144.346 144.856 144.897 144.947
145.411 145.604 250.129 250.144 250.153 250.160 250.289 250.290
250.307 250.325 250.334 250.346 269.451 269.468 389.393 493.813
493.828 493.844 493.932 494.514 494.5551121.1051121.129
 --------------------------------------------------------------
 
          Ground-State Mulliken Net Atomic Charges

     Atom                 Charge (a.u.)
  ----------------------------------------
      1 S                     0.786751
      2 F                    -0.393375
      3 F                    -0.393375
  ----------------------------------------
  Sum of atomic charges =    -0.000000

 -----------------------------------------------------------------
                    Cartesian Multipole Moments
 -----------------------------------------------------------------
    Charge (ESU x 10^10)
                -0.0000
    Dipole Moment (Debye)
         X      -0.0000      Y       0.0000      Z       1.0222
       Tot       1.0222
    Quadrupole Moments (Debye-Ang)
        XX     -23.4951     XY       0.0000     YY     -22.9199
        XZ      -0.0000     YZ      -0.0000     ZZ     -21.6669
    Octopole Moments (Debye-Ang^2)
       XXX      -0.0000    XXY       0.0000    XYY      -0.0000
       YYY       0.0000    XXZ      -3.8649    XYZ       0.0000
       YYZ       0.0148    XZZ      -0.0000    YZZ      -0.0000
       ZZZ      -5.2101
    Hexadecapole Moments (Debye-Ang^3)
      XXXX     -26.6397   XXXY       0.0000   XXYY     -21.5382
      XYYY       0.0000   YYYY    -105.5834   XXXZ       0.0000
      XXYZ      -0.0000   XYYZ      -0.0000   YYYZ      -0.0000
      XXZZ     -15.5681   XYZZ       0.0000   YYZZ     -25.5194
      XZZZ      -0.0000   YZZZ      -0.0000   ZZZZ     -56.1672
 -----------------------------------------------------------------
Archival summary:
1\1\n0098.mhg0\SP\ProcedureUnspecified\BasisUnspecified\12\yhljason\SatNov1423:54:552020SatNov1423:54:552020\0\\#,ProcedureUnspecified,BasisUnspecified,\\0,1\S\F,1,1.58748\F,1,1.58748,2,98.0458\\\@

 Total job time:  1619.31s(wall), 12333.10s(cpu) 
 Sat Nov 14 23:54:55 2020

        *************************************************************
        *                                                           *
        *  Thank you very much for using Q-Chem.  Have a nice day.  *
        *                                                           *
        *************************************************************


 
User input: 5 of 146 of 14 
 
Q-Chem Developer Version!
                  Welcome to Q-Chem
     A Quantum Leap Into The Future Of Chemistry


 Q-Chem 5.1, Q-Chem, Inc., Pleasanton, CA (2018)

 Yihan Shao,  Zhengting Gan,  E. Epifanovsky,  A. T. B. Gilbert,  M. Wormit,  
 J. Kussmann,  A. W. Lange,  A. Behn,  Jia Deng,  Xintian Feng,  D. Ghosh,  
 M. Goldey,  P. R. Horn,  L. D. Jacobson,  I. Kaliman,  T. Kus,  A. Landau,  
 Jie Liu,  E. I. Proynov,  R. M. Richard,  R. P. Steele,  E. J. Sundstrom,  
 H. L. Woodcock III,  P. M. Zimmerman,  D. Zuev,  B. Albrecht,  E. Alguire,  
 S. A. Baeppler,  D. Barton,  Z. Benda,  Y. A. Bernard,  E. J. Berquist,  
 K. B. Bravaya,  H. Burton,  D. Casanova,  Chun-Min Chang,  Yunqing Chen,  
 A. Chien,  K. D. Closser,  M. P. Coons,  S. Coriani,  S. Dasgupta,  
 A. L. Dempwolff,  M. Diedenhofen,  Hainam Do,  R. G. Edgar,  Po-Tung Fang,  
 S. Faraji,  S. Fatehi,  Qingguo Feng,  K. D. Fenk,  J. Fosso-Tande,  
 Qinghui Ge,  A. Ghysels,  G. Gidofalvi,  J. Gomes,  J. Gonthier,  A. Gunina,  
 D. Hait,  M. W. D. Hanson-Heine,  P. H. P. Harbach,  A. W. Hauser,  
 J. E. Herr,  E. G. Hohenstein,  Z. C. Holden,  Kerwin Hui,  B. C. Huynh,  
 T.-C. Jagau,  Hyunjun Ji,  B. Kaduk,  K. Khistyaev,  Jaehoon Kim,  
 P. Klunzinger,  K. Koh,  D. Kosenkov,  L. Koulias,  T. Kowalczyk,  
 C. M. Krauter,  A. Kunitsa,  Ka Un Lao,  A. Laurent,  K. V. Lawler,  
 Joonho Lee,  D. Lefrancois,  S. Lehtola,  D. S. Levine,  Yi-Pei Li,  
 You-Sheng Lin,  Fenglai Liu,  E. Livshits,  A. Luenser,  P. Manohar,  
 E. Mansoor,  S. F. Manzer,  Shan-Ping Mao,  Yuezhi Mao,  N. Mardirossian,  
 A. V. Marenich,  T. Markovich,  L. A. Martinez-Martinez,  S. A. Maurer,  
 N. J. Mayhall,  S. C. McKenzie,  J.-M. Mewes,  A. F. Morrison,  
 J. W. Mullinax,  K. Nanda,  T. S. Nguyen-Beck,  R. Olivares-Amaya,  
 J. A. Parkhill,  T. M. Perrine,  F. Plasser,  P. Pokhilko,  S. Prager,  
 A. Prociuk,  E. Ramos,  D. R. Rehn,  F. Rob,  M. Schneider,  N. Sergueev,  
 S. M. Sharada,  S. Sharma,  D. W. Small,  T. Stauch,  T. Stein,  
 Yu-Chuan Su,  A. J. W. Thom,  A. Tkatchenko,  T. Tsuchimochi,  N. M. Tubman,  
 L. Vogt,  M. L. Vidal,  O. Vydrov,  M. A. Watson,  J. Wenzel,  
 M. de Wergifosse,  T. A. Wesolowski,  A. White,  J. Witte,  A. Yamada,  
 Jun Yang,  K. Yao,  S. Yeganeh,  S. R. Yost,  Zhi-Qiang You,  A. Zech,  
 Igor Ying Zhang,  Xing Zhang,  Yan Zhao,  Ying Zhu,  B. R. Brooks,  
 G. K. L. Chan,  C. J. Cramer,  M. S. Gordon,  W. J. Hehre,  A. Klamt,  
 M. W. Schmidt,  C. D. Sherrill,  D. G. Truhlar,  A. Aspuru-Guzik,  R. Baer,  
 A. T. Bell,  N. A. Besley,  Jeng-Da Chai,  A. E. DePrince, III,  
 R. A. DiStasio Jr.,  A. Dreuw,  B. D. Dunietz,  T. R. Furlani,  
 Chao-Ping Hsu,  Yousung Jung,  Jing Kong,  D. S. Lambrecht,  WanZhen Liang,  
 C. Ochsenfeld,  V. A. Rassolov,  L. V. Slipchenko,  J. E. Subotnik,  
 T. Van Voorhis,  J. M. Herbert,  A. I. Krylov,  P. M. W. Gill,  M. Head-Gordon

 Contributors to earlier versions of Q-Chem not listed above: 
 R. D. Adamson,  B. Austin,  J. Baker,  G. J. O. Beran,  K. Brandhorst,  
 S. T. Brown,  E. F. C. Byrd,  A. K. Chakraborty,  C.-L. Cheng,  
 Siu Hung Chien,  D. M. Chipman,  D. L. Crittenden,  H. Dachsel,  
 R. J. Doerksen,  A. D. Dutoi,  L. Fusti-Molnar,  W. A. Goddard III,  
 A. Golubeva-Zadorozhnaya,  S. R. Gwaltney,  G. Hawkins,  A. Heyden,  
 S. Hirata,  G. Kedziora,  F. J. Keil,  C. Kelley,  Jihan Kim,  R. A. King,  
 R. Z. Khaliullin,  P. P. Korambath,  W. Kurlancheek,  A. M. Lee,  M. S. Lee,  
 S. V. Levchenko,  Ching Yeh Lin,  D. Liotard,  R. C. Lochan,  I. Lotan,  
 P. E. Maslen,  N. Nair,  D. P. O'Neill,  D. Neuhauser,  E. Neuscamman,  
 C. M. Oana,  R. Olson,  B. Peters,  R. Peverati,  P. A. Pieniazek,  
 Y. M. Rhee,  J. Ritchie,  M. A. Rohrdanz,  E. Rosta,  N. J. Russ,  
 H. F. Schaefer III,  N. E. Schultz,  N. Shenvi,  A. C. Simmonett,  A. Sodt,  
 D. Stuck,  K. S. Thanthiriwatte,  V. Vanovschi,  Tao Wang,  A. Warshel,  
 C. F. Williams,  Q. Wu,  X. Xu,  W. Zhang

 Please cite Q-Chem as follows:
 Y. Shao et al., Mol. Phys. 113, 184-215 (2015)
 DOI: 10.1080/00268976.2014.952696

 Q-Chem 5.1.1 for Intel X86 EM64T Linux

 Parts of Q-Chem use Armadillo 8.300.2 (Tropical Shenanigans).
 http://arma.sourceforge.net/

 Q-Chem begins on Sun Nov 15 00:05:55 2020  

Host: n0098.mhg0
0

     Scratch files written to /local/scratch/users/yhljason/SF2_wB97M2_aug-cc-pcVQZ.inp20201114211643//
The previous job contains 0 fragments, simply inherited here
Input Ideriv = 0
Curr. Ideriv = -1
Max.  Ideriv = 0
Analytic post-HF gradients are not available with non-HF exchange
Input Ideriv = 0
Curr. Ideriv = 0
Max.  Ideriv = 0

Checking the input file for inconsistencies... 	...done.

--------------------------------------------------------------
User input:
--------------------------------------------------------------
$molecule
read
$end

$rem

jobtype sp
exchange wb97m(2)
xc_grid 000099000590
basis aug-cc-pcVQZ
max_scf_cycles 200
thresh 14
scf_convergence 8
mem_total 128000
cc_memory 96000
cc_backend xm
mem_static 1500
symmetry false
sym_ignore true
scf_guess read
unrestricted false
scf_algorithm gdm
n_frozen_core 0
$end

$multipole_field
XX -0.0001
$end



--------------------------------------------------------------
 ----------------------------------------------------------------
             Standard Nuclear Orientation (Angstroms)
    I     Atom           X                Y                Z
 ----------------------------------------------------------------
    1      S       0.0000000000     0.0000000000     0.5511000000
    2      F       0.0000000000     1.1985000000    -0.4899000000
    3      F       0.0000000000    -1.1985000000    -0.4899000000
 ----------------------------------------------------------------
 Nuclear Repulsion Energy =   113.8853868052 hartrees
 There are       17 alpha and       17 beta electrons
 Requested basis set is aug-cc-pCVQZ
 There are 92 shells and 352 basis functions

 Total QAlloc Memory Limit 128000 MB
 Mega-Array Size      1467 MB
 MEM_STATIC part      1500 MB

                       Distance Matrix (Angstroms)
             S (  1)   F (  2)
   F (  2)  1.587477
   F (  3)  1.587477  2.397000
 
 Applying Cartesian multipole field
    Component          Value
    ---------          -----
     (2,0,0)       -1.00000E-04
 A cutoff of  1.0D-14 yielded   3865 shell pairs
 There are     57969 function pairs (     96515 Cartesian)
 
 -------------------------------------------------------
 OpenMP Integral Computing Module                       
 Release: version 1.0, May 2013, Q-Chem Inc. Pittsburgh 
 -------------------------------------------------------
 Integral Job Info:
 Integral job number is                      11
 Integral operator is                         1
 short-range coefficients              15000000
 long-range coefficients              100000000
 Omega coefficients                         300
 if combine SR and LR in K                    1
 Integral screening is                        0
 Integral computing path is                   2
 max size of driver memory is           3200000
 size of driver memory is               1704330
 size of scratch memory is             28840424
 max col of scratch BK array              50625
 max len of scratch array in speh3         2114
 max len of scratch index in speh4           50
 max int batch size is                      520
 min int batch size is                       52
 fixed nKL is                                21
 max L of basis functions is                  4
 order of int derivative is                   0
 number of shells is                         92
 number of basis is                         452
 number of cartesian basis is               452
 number of contracted shell pairs          3865
 number of primitive shell pairs          11740
 maxK2 (contraction) of shell pair          169
 max number of K2 of shell pair               1
 max number of CS2 of shell pair            403
 max number of PS2 of shell pair           1014
 mem total for path MDJ                  866296
 -------------------------------------------------------
 Smallest overlap matrix eigenvalue = 2.68E-05
 Guess MOs from SCF MO coefficient file
 Reading MOs from coefficient file
 Reading MOs from coefficient file
 Long-range K will be added via erf
 Coulomb attenuation parameter = 0.3 bohr**(-1)
 A restricted hybrid HF-DFT SCF calculation will be
 performed using Geometric Direct Minimization
 Exchange:     0.1500 Hartree-Fock + 1.0000 wB97M-V + LR-HF
 Correlation:  1.0000 wB97M-V
 Using Euler-Maclaurin-Lebedev (99,590) quadrature formula
 Nonlocal Correlation:  VV10 with C = 0.0100 and b = 6.00 and scale = 1.00000
 Grid used for NLC:  SG-1 standard quadrature
 SCF converges when RMS gradient is below 1.0E-08
Using Q-Chem read-in guess as SCF_GUESS READ specified.

 using 8 threads for integral computing
 -------------------------------------------------------
 OpenMP Integral computing Module                
 Release: version 1.0, May 2013, Q-Chem Inc. Pittsburgh 
 -------------------------------------------------------
 using 8 threads for integral computing
 -------------------------------------------------------
 OpenMP Integral computing Module                
 Release: version 1.0, May 2013, Q-Chem Inc. Pittsburgh 
 -------------------------------------------------------
TIMEINFO->: J/JK contribution 485.58 sec.
 -------------------------------------------------------
 OpenMP BLAS3 based DFT computing Module                
 Release: version 1.0, May 2013, Q-Chem Inc. Pittsburgh 
 -------------------------------------------------------
 -------------------------------------------------------
 OpenMP BLAS3 based DFT computing Module                
 Release: version 1.0, May 2013, Q-Chem Inc. Pittsburgh 
 -------------------------------------------------------
 -------------------------------------------------------
 OpenMP BLAS3 based DFT computing Module                
 Release: version 1.0, May 2013, Q-Chem Inc. Pittsburgh 
 -------------------------------------------------------
 ---------------------------------------
  Cycle       Energy        RMS Gradient
 ---------------------------------------
    1    -597.8879017181      1.61E-09 Normal BFGS step
TIMEINFO->: J/JK contribution 482.82 sec.
 Nonlocal correlation =     0.0457504794
    2    -597.8879017181      1.13E-09 Convergence criterion met
 ---------------------------------------
 wB97M-V orbitals are now ready for the wB97M(2) calculation.
 wB97M(2) energy = Exch (0.62194 SRHF + 1.0 LRHF + wB97M(2)_EXCH) + 
               Corr (wB97M(2)_CORR + 0.34096 MP2 + 0.65904 VV10(b=10))
 SCF time:  CPU 1834.46 s  wall 235.57 s
 SCF   energy in the final basis set = -597.67212404
 Total energy in the final basis set = -597.67212404
 
 Components of the MP2 correlation energy:
        aaaa  correlation energy =        -0.0608270679 au
        abab  correlation energy =        -0.3704529330 au
        bbbb  correlation energy =        -0.0608270679 au
        non-Brillouin singles    =        -0.0000000000 au

 Total  MP2   correlation energy =                    -0.49210707 au
        MP2         total energy =                  -598.16423111 au
 
 --------------------------------------------------------------
 
                    Orbital Energies (a.u.)
 --------------------------------------------------------------
 
 Alpha MOs
 -- Occupied --
-89.322 -24.951 -24.951  -8.242  -6.155  -6.152  -6.139  -1.410
 -1.369  -0.865  -0.684  -0.647  -0.632  -0.583  -0.564  -0.539
 -0.352
 -- Virtual --
  0.006   0.030   0.038   0.059   0.073   0.094   0.123   0.151
  0.159   0.164   0.168   0.213   0.226   0.230   0.235   0.247
  0.259   0.273   0.322   0.364   0.370   0.430   0.461   0.469
  0.471   0.479   0.496   0.532   0.541   0.544   0.574   0.580
  0.587   0.656   0.719   0.725   0.732   0.735   0.735   0.741
  0.772   0.789   0.797   0.820   0.861   0.993   0.996   1.008
  1.024   1.082   1.113   1.188   1.197   1.243   1.248   1.268
  1.285   1.286   1.364   1.365   1.378   1.396   1.419   1.437
  1.457   1.466   1.485   1.485   1.515   1.615   1.654   1.678
  1.716   1.776   1.795   1.832   1.874   1.903   1.928   1.972
  1.988   2.005   2.044   2.092   2.181   2.185   2.226   2.247
  2.249   2.250   2.304   2.330   2.415   2.468   2.471   2.525
  2.685   2.728   2.731   2.731   2.750   2.787   3.090   3.091
  3.117   3.133   3.218   3.293   3.299   3.342   3.356   3.382
  3.403   3.409   3.441   3.456   3.515   3.538   3.574   3.604
  3.657   3.704   3.781   3.976   4.109   4.113   4.203   4.446
  4.451   4.506   4.512   4.563   4.610   4.637   4.656   4.678
  4.730   4.799   4.928   5.066   5.083   5.091   5.134   5.150
  5.207   5.231   5.257   5.283   5.302   5.303   5.355   5.375
  5.404   5.464   5.470   5.481   5.491   5.504   5.543   5.581
  5.640   5.695   5.706   5.790   5.840   5.876   5.885   6.127
  6.439   6.463   6.500   6.511   6.518   6.636   6.728   7.008
  8.792   9.700   9.733   9.823  10.315  10.650  11.431  11.466
 11.537  11.640  12.687  12.767  13.169  13.181  13.201  13.206
 13.219  13.258  13.294  13.311  13.408  13.481  13.498  13.518
 13.551  13.580  13.594  13.648  13.671  13.695  15.295  15.331
 15.337  15.361  15.442  15.467  15.479  15.501  15.529  15.538
 15.580  15.626  15.718  15.733  15.902  16.142  16.199  16.220
 16.237  16.399  16.648  16.661  16.666  16.722  16.795  16.862
 16.884  18.171  18.266  18.361  18.389  18.441  18.777  18.822
 21.188  21.194  28.356  31.238  31.265  31.333  31.548  31.921
 40.698  40.724  40.758  40.882  41.782  41.842  45.504  46.063
 46.339  55.077  55.078  55.079  55.081  55.084  55.087  55.089
 55.091  55.091  59.426  59.451  59.470  59.479  59.722  59.722
 59.750  59.785  59.804  59.825  65.263  65.299  65.338  65.339
 65.380  65.500  65.531  78.767  78.780  82.328  93.100  93.121
 93.172  93.285  93.576  97.205  97.210  97.211  97.215  97.218
 97.223  97.228  97.232  97.232  97.239  97.242  97.252  97.276
 97.280 144.198 144.223 144.242 144.347 144.856 144.897 144.947
145.412 145.605 250.130 250.145 250.154 250.161 250.290 250.291
250.308 250.326 250.335 250.347 269.452 269.469 389.394 493.814
493.829 493.845 493.933 494.515 494.5561121.1051121.129
 --------------------------------------------------------------
 
          Ground-State Mulliken Net Atomic Charges

     Atom                 Charge (a.u.)
  ----------------------------------------
      1 S                     0.789137
      2 F                    -0.394568
      3 F                    -0.394568
  ----------------------------------------
  Sum of atomic charges =    -0.000000

 -----------------------------------------------------------------
                    Cartesian Multipole Moments
 -----------------------------------------------------------------
    Charge (ESU x 10^10)
                -0.0000
    Dipole Moment (Debye)
         X      -0.0000      Y       0.0000      Z       1.0259
       Tot       1.0259
    Quadrupole Moments (Debye-Ang)
        XX     -23.4591     XY       0.0000     YY     -22.9195
        XZ       0.0000     YZ      -0.0000     ZZ     -21.6607
    Octopole Moments (Debye-Ang^2)
       XXX       0.0000    XXY       0.0000    XYY      -0.0000
       YYY       0.0000    XXZ      -3.8389    XYZ       0.0000
       YYZ       0.0227    XZZ       0.0000    YZZ       0.0000
       ZZZ      -5.1945
    Hexadecapole Moments (Debye-Ang^3)
      XXXX     -26.4360   XXXY       0.0000   XXYY     -21.5034
      XYYY       0.0000   YYYY    -105.5726   XXXZ       0.0000
      XXYZ      -0.0000   XYYZ       0.0000   YYYZ      -0.0000
      XXZZ     -15.5127   XYZZ       0.0000   YYZZ     -25.5099
      XZZZ       0.0000   YZZZ      -0.0000   ZZZZ     -56.1206
 -----------------------------------------------------------------
Archival summary:
1\1\n0098.mhg0\SP\ProcedureUnspecified\BasisUnspecified\12\yhljason\SunNov1500:32:152020SunNov1500:32:152020\0\\#,ProcedureUnspecified,BasisUnspecified,\\0,1\S\F,1,1.58748\F,1,1.58748,2,98.0458\\\@

 Total job time:  1580.04s(wall), 12449.49s(cpu) 
 Sun Nov 15 00:32:15 2020

        *************************************************************
        *                                                           *
        *  Thank you very much for using Q-Chem.  Have a nice day.  *
        *                                                           *
        *************************************************************


 
User input: 7 of 148 of 14 
 
Q-Chem Developer Version!
                  Welcome to Q-Chem
     A Quantum Leap Into The Future Of Chemistry


 Q-Chem 5.1, Q-Chem, Inc., Pleasanton, CA (2018)

 Yihan Shao,  Zhengting Gan,  E. Epifanovsky,  A. T. B. Gilbert,  M. Wormit,  
 J. Kussmann,  A. W. Lange,  A. Behn,  Jia Deng,  Xintian Feng,  D. Ghosh,  
 M. Goldey,  P. R. Horn,  L. D. Jacobson,  I. Kaliman,  T. Kus,  A. Landau,  
 Jie Liu,  E. I. Proynov,  R. M. Richard,  R. P. Steele,  E. J. Sundstrom,  
 H. L. Woodcock III,  P. M. Zimmerman,  D. Zuev,  B. Albrecht,  E. Alguire,  
 S. A. Baeppler,  D. Barton,  Z. Benda,  Y. A. Bernard,  E. J. Berquist,  
 K. B. Bravaya,  H. Burton,  D. Casanova,  Chun-Min Chang,  Yunqing Chen,  
 A. Chien,  K. D. Closser,  M. P. Coons,  S. Coriani,  S. Dasgupta,  
 A. L. Dempwolff,  M. Diedenhofen,  Hainam Do,  R. G. Edgar,  Po-Tung Fang,  
 S. Faraji,  S. Fatehi,  Qingguo Feng,  K. D. Fenk,  J. Fosso-Tande,  
 Qinghui Ge,  A. Ghysels,  G. Gidofalvi,  J. Gomes,  J. Gonthier,  A. Gunina,  
 D. Hait,  M. W. D. Hanson-Heine,  P. H. P. Harbach,  A. W. Hauser,  
 J. E. Herr,  E. G. Hohenstein,  Z. C. Holden,  Kerwin Hui,  B. C. Huynh,  
 T.-C. Jagau,  Hyunjun Ji,  B. Kaduk,  K. Khistyaev,  Jaehoon Kim,  
 P. Klunzinger,  K. Koh,  D. Kosenkov,  L. Koulias,  T. Kowalczyk,  
 C. M. Krauter,  A. Kunitsa,  Ka Un Lao,  A. Laurent,  K. V. Lawler,  
 Joonho Lee,  D. Lefrancois,  S. Lehtola,  D. S. Levine,  Yi-Pei Li,  
 You-Sheng Lin,  Fenglai Liu,  E. Livshits,  A. Luenser,  P. Manohar,  
 E. Mansoor,  S. F. Manzer,  Shan-Ping Mao,  Yuezhi Mao,  N. Mardirossian,  
 A. V. Marenich,  T. Markovich,  L. A. Martinez-Martinez,  S. A. Maurer,  
 N. J. Mayhall,  S. C. McKenzie,  J.-M. Mewes,  A. F. Morrison,  
 J. W. Mullinax,  K. Nanda,  T. S. Nguyen-Beck,  R. Olivares-Amaya,  
 J. A. Parkhill,  T. M. Perrine,  F. Plasser,  P. Pokhilko,  S. Prager,  
 A. Prociuk,  E. Ramos,  D. R. Rehn,  F. Rob,  M. Schneider,  N. Sergueev,  
 S. M. Sharada,  S. Sharma,  D. W. Small,  T. Stauch,  T. Stein,  
 Yu-Chuan Su,  A. J. W. Thom,  A. Tkatchenko,  T. Tsuchimochi,  N. M. Tubman,  
 L. Vogt,  M. L. Vidal,  O. Vydrov,  M. A. Watson,  J. Wenzel,  
 M. de Wergifosse,  T. A. Wesolowski,  A. White,  J. Witte,  A. Yamada,  
 Jun Yang,  K. Yao,  S. Yeganeh,  S. R. Yost,  Zhi-Qiang You,  A. Zech,  
 Igor Ying Zhang,  Xing Zhang,  Yan Zhao,  Ying Zhu,  B. R. Brooks,  
 G. K. L. Chan,  C. J. Cramer,  M. S. Gordon,  W. J. Hehre,  A. Klamt,  
 M. W. Schmidt,  C. D. Sherrill,  D. G. Truhlar,  A. Aspuru-Guzik,  R. Baer,  
 A. T. Bell,  N. A. Besley,  Jeng-Da Chai,  A. E. DePrince, III,  
 R. A. DiStasio Jr.,  A. Dreuw,  B. D. Dunietz,  T. R. Furlani,  
 Chao-Ping Hsu,  Yousung Jung,  Jing Kong,  D. S. Lambrecht,  WanZhen Liang,  
 C. Ochsenfeld,  V. A. Rassolov,  L. V. Slipchenko,  J. E. Subotnik,  
 T. Van Voorhis,  J. M. Herbert,  A. I. Krylov,  P. M. W. Gill,  M. Head-Gordon

 Contributors to earlier versions of Q-Chem not listed above: 
 R. D. Adamson,  B. Austin,  J. Baker,  G. J. O. Beran,  K. Brandhorst,  
 S. T. Brown,  E. F. C. Byrd,  A. K. Chakraborty,  C.-L. Cheng,  
 Siu Hung Chien,  D. M. Chipman,  D. L. Crittenden,  H. Dachsel,  
 R. J. Doerksen,  A. D. Dutoi,  L. Fusti-Molnar,  W. A. Goddard III,  
 A. Golubeva-Zadorozhnaya,  S. R. Gwaltney,  G. Hawkins,  A. Heyden,  
 S. Hirata,  G. Kedziora,  F. J. Keil,  C. Kelley,  Jihan Kim,  R. A. King,  
 R. Z. Khaliullin,  P. P. Korambath,  W. Kurlancheek,  A. M. Lee,  M. S. Lee,  
 S. V. Levchenko,  Ching Yeh Lin,  D. Liotard,  R. C. Lochan,  I. Lotan,  
 P. E. Maslen,  N. Nair,  D. P. O'Neill,  D. Neuhauser,  E. Neuscamman,  
 C. M. Oana,  R. Olson,  B. Peters,  R. Peverati,  P. A. Pieniazek,  
 Y. M. Rhee,  J. Ritchie,  M. A. Rohrdanz,  E. Rosta,  N. J. Russ,  
 H. F. Schaefer III,  N. E. Schultz,  N. Shenvi,  A. C. Simmonett,  A. Sodt,  
 D. Stuck,  K. S. Thanthiriwatte,  V. Vanovschi,  Tao Wang,  A. Warshel,  
 C. F. Williams,  Q. Wu,  X. Xu,  W. Zhang

 Please cite Q-Chem as follows:
 Y. Shao et al., Mol. Phys. 113, 184-215 (2015)
 DOI: 10.1080/00268976.2014.952696

 Q-Chem 5.1.1 for Intel X86 EM64T Linux

 Parts of Q-Chem use Armadillo 8.300.2 (Tropical Shenanigans).
 http://arma.sourceforge.net/

 Q-Chem begins on Sun Nov 15 00:43:48 2020  

Host: n0098.mhg0
0

     Scratch files written to /local/scratch/users/yhljason/SF2_wB97M2_aug-cc-pcVQZ.inp20201114211643//
The previous job contains 0 fragments, simply inherited here
Input Ideriv = 0
Curr. Ideriv = -1
Max.  Ideriv = 0
Analytic post-HF gradients are not available with non-HF exchange
Input Ideriv = 0
Curr. Ideriv = 0
Max.  Ideriv = 0

Checking the input file for inconsistencies... 	...done.

--------------------------------------------------------------
User input:
--------------------------------------------------------------
$molecule
read
$end

$rem

jobtype sp
exchange wb97m(2)
xc_grid 000099000590
basis aug-cc-pcVQZ
max_scf_cycles 200
thresh 14
scf_convergence 8
mem_total 128000
cc_memory 96000
cc_backend xm
mem_static 1500
symmetry false
sym_ignore true
scf_guess read
unrestricted false
scf_algorithm gdm
n_frozen_core 0
$end

$multipole_field
YY 0.0001
$end



--------------------------------------------------------------
 ----------------------------------------------------------------
             Standard Nuclear Orientation (Angstroms)
    I     Atom           X                Y                Z
 ----------------------------------------------------------------
    1      S       0.0000000000     0.0000000000     0.5511000000
    2      F       0.0000000000     1.1985000000    -0.4899000000
    3      F       0.0000000000    -1.1985000000    -0.4899000000
 ----------------------------------------------------------------
 Nuclear Repulsion Energy =   113.8853868052 hartrees
 There are       17 alpha and       17 beta electrons
 Requested basis set is aug-cc-pCVQZ
 There are 92 shells and 352 basis functions

 Total QAlloc Memory Limit 128000 MB
 Mega-Array Size      1467 MB
 MEM_STATIC part      1500 MB

                       Distance Matrix (Angstroms)
             S (  1)   F (  2)
   F (  2)  1.587477
   F (  3)  1.587477  2.397000
 
 Applying Cartesian multipole field
    Component          Value
    ---------          -----
     (0,2,0)        1.00000E-04
 Nucleus-field energy     =     0.0092330740 hartrees
 A cutoff of  1.0D-14 yielded   3865 shell pairs
 There are     57969 function pairs (     96515 Cartesian)
 
 -------------------------------------------------------
 OpenMP Integral Computing Module                       
 Release: version 1.0, May 2013, Q-Chem Inc. Pittsburgh 
 -------------------------------------------------------
 Integral Job Info:
 Integral job number is                      11
 Integral operator is                         1
 short-range coefficients              15000000
 long-range coefficients              100000000
 Omega coefficients                         300
 if combine SR and LR in K                    1
 Integral screening is                        0
 Integral computing path is                   2
 max size of driver memory is           3200000
 size of driver memory is               1704330
 size of scratch memory is             28840424
 max col of scratch BK array              50625
 max len of scratch array in speh3         2114
 max len of scratch index in speh4           50
 max int batch size is                      520
 min int batch size is                       52
 fixed nKL is                                21
 max L of basis functions is                  4
 order of int derivative is                   0
 number of shells is                         92
 number of basis is                         452
 number of cartesian basis is               452
 number of contracted shell pairs          3865
 number of primitive shell pairs          11740
 maxK2 (contraction) of shell pair          169
 max number of K2 of shell pair               1
 max number of CS2 of shell pair            403
 max number of PS2 of shell pair           1014
 mem total for path MDJ                  866296
 -------------------------------------------------------
 Smallest overlap matrix eigenvalue = 2.68E-05
 Guess MOs from SCF MO coefficient file
 Reading MOs from coefficient file
 Reading MOs from coefficient file
 Long-range K will be added via erf
 Coulomb attenuation parameter = 0.3 bohr**(-1)
 A restricted hybrid HF-DFT SCF calculation will be
 performed using Geometric Direct Minimization
 Exchange:     0.1500 Hartree-Fock + 1.0000 wB97M-V + LR-HF
 Correlation:  1.0000 wB97M-V
 Using Euler-Maclaurin-Lebedev (99,590) quadrature formula
 Nonlocal Correlation:  VV10 with C = 0.0100 and b = 6.00 and scale = 1.00000
 Grid used for NLC:  SG-1 standard quadrature
 SCF converges when RMS gradient is below 1.0E-08
Using Q-Chem read-in guess as SCF_GUESS READ specified.

 using 8 threads for integral computing
 -------------------------------------------------------
 OpenMP Integral computing Module                
 Release: version 1.0, May 2013, Q-Chem Inc. Pittsburgh 
 -------------------------------------------------------
 using 8 threads for integral computing
 -------------------------------------------------------
 OpenMP Integral computing Module                
 Release: version 1.0, May 2013, Q-Chem Inc. Pittsburgh 
 -------------------------------------------------------
TIMEINFO->: J/JK contribution 465.42 sec.
 -------------------------------------------------------
 OpenMP BLAS3 based DFT computing Module                
 Release: version 1.0, May 2013, Q-Chem Inc. Pittsburgh 
 -------------------------------------------------------
 -------------------------------------------------------
 OpenMP BLAS3 based DFT computing Module                
 Release: version 1.0, May 2013, Q-Chem Inc. Pittsburgh 
 -------------------------------------------------------
 -------------------------------------------------------
 OpenMP BLAS3 based DFT computing Module                
 Release: version 1.0, May 2013, Q-Chem Inc. Pittsburgh 
 -------------------------------------------------------
 ---------------------------------------
  Cycle       Energy        RMS Gradient
 ---------------------------------------
    1    -597.8913516588      3.96E-10 Normal BFGS step
TIMEINFO->: J/JK contribution 436.83 sec.
   GDM::WARNING energy changes are now smaller than effective accuracy.
   GDM::        calculation will continue, but THRESH should be increased
   GDM::        or SCF_CONVERGENCE decreased.
   GDM::        effective_thresh =   1.700000000000000E-010
 Nonlocal correlation =     0.0457499567
    2    -597.8913516588      2.84E-10 Convergence criterion met
 ---------------------------------------
 wB97M-V orbitals are now ready for the wB97M(2) calculation.
 wB97M(2) energy = Exch (0.62194 SRHF + 1.0 LRHF + wB97M(2)_EXCH) + 
               Corr (wB97M(2)_CORR + 0.34096 MP2 + 0.65904 VV10(b=10))
 SCF time:  CPU 1682.22 s  wall 211.88 s
 SCF   energy in the final basis set = -597.67555322
 Total energy in the final basis set = -597.67555322
 
 Components of the MP2 correlation energy:
        aaaa  correlation energy =        -0.0608283605 au
        abab  correlation energy =        -0.3704537469 au
        bbbb  correlation energy =        -0.0608283605 au
        non-Brillouin singles    =        -0.0000000000 au

 Total  MP2   correlation energy =                    -0.49211047 au
        MP2         total energy =                  -598.16766369 au
 
 --------------------------------------------------------------
 
                    Orbital Energies (a.u.)
 --------------------------------------------------------------
 
 Alpha MOs
 -- Occupied --
-89.323 -24.952 -24.952  -8.243  -6.156  -6.152  -6.140  -1.411
 -1.370  -0.866  -0.685  -0.648  -0.633  -0.584  -0.565  -0.540
 -0.352
 -- Virtual --
  0.005   0.028   0.035   0.054   0.069   0.092   0.119   0.148
  0.156   0.161   0.165   0.210   0.223   0.228   0.233   0.244
  0.257   0.270   0.319   0.361   0.369   0.428   0.459   0.467
  0.469   0.478   0.494   0.531   0.539   0.542   0.572   0.579
  0.586   0.654   0.716   0.723   0.731   0.733   0.733   0.739
  0.771   0.788   0.796   0.818   0.859   0.992   0.994   1.006
  1.022   1.081   1.112   1.187   1.196   1.241   1.246   1.267
  1.284   1.285   1.364   1.364   1.377   1.395   1.418   1.436
  1.456   1.465   1.483   1.484   1.514   1.614   1.652   1.677
  1.715   1.774   1.794   1.831   1.873   1.902   1.927   1.970
  1.987   2.004   2.043   2.091   2.180   2.184   2.225   2.246
  2.247   2.249   2.303   2.329   2.413   2.467   2.470   2.524
  2.684   2.727   2.730   2.730   2.749   2.786   3.089   3.090
  3.116   3.133   3.217   3.293   3.298   3.342   3.356   3.382
  3.403   3.409   3.440   3.455   3.514   3.537   3.573   3.603
  3.656   3.703   3.780   3.975   4.108   4.113   4.202   4.445
  4.450   4.505   4.511   4.562   4.609   4.636   4.655   4.677
  4.729   4.798   4.927   5.065   5.082   5.090   5.134   5.149
  5.206   5.230   5.256   5.282   5.301   5.302   5.354   5.374
  5.403   5.463   5.469   5.480   5.490   5.503   5.542   5.580
  5.639   5.694   5.705   5.789   5.839   5.875   5.884   6.126
  6.438   6.462   6.500   6.510   6.517   6.635   6.727   7.007
  8.791   9.699   9.732   9.823  10.314  10.650  11.430  11.465
 11.536  11.639  12.686  12.766  13.169  13.180  13.201  13.205
 13.218  13.257  13.293  13.310  13.408  13.480  13.497  13.517
 13.551  13.579  13.593  13.647  13.670  13.695  15.294  15.330
 15.336  15.360  15.441  15.466  15.478  15.500  15.528  15.537
 15.579  15.625  15.717  15.732  15.901  16.141  16.198  16.219
 16.236  16.398  16.647  16.660  16.665  16.721  16.794  16.861
 16.883  18.171  18.265  18.360  18.388  18.440  18.777  18.822
 21.187  21.194  28.355  31.237  31.264  31.333  31.547  31.920
 40.697  40.723  40.757  40.881  41.782  41.841  45.504  46.062
 46.338  55.076  55.077  55.079  55.080  55.083  55.086  55.088
 55.090  55.090  59.425  59.450  59.469  59.478  59.721  59.722
 59.749  59.784  59.804  59.824  65.263  65.298  65.338  65.338
 65.379  65.499  65.530  78.766  78.779  82.327  93.099  93.120
 93.171  93.284  93.575  97.204  97.209  97.210  97.215  97.218
 97.222  97.227  97.231  97.232  97.238  97.242  97.251  97.275
 97.279 144.197 144.222 144.241 144.346 144.856 144.896 144.946
145.411 145.604 250.129 250.144 250.153 250.160 250.289 250.290
250.307 250.325 250.334 250.346 269.451 269.468 389.393 493.813
493.828 493.844 493.932 494.514 494.5551121.1041121.128
 --------------------------------------------------------------
 
          Ground-State Mulliken Net Atomic Charges

     Atom                 Charge (a.u.)
  ----------------------------------------
      1 S                     0.789428
      2 F                    -0.394714
      3 F                    -0.394714
  ----------------------------------------
  Sum of atomic charges =    -0.000000

 -----------------------------------------------------------------
                    Cartesian Multipole Moments
 -----------------------------------------------------------------
    Charge (ESU x 10^10)
                -0.0000
    Dipole Moment (Debye)
         X       0.0000      Y       0.0000      Z       1.0274
       Tot       1.0274
    Quadrupole Moments (Debye-Ang)
        XX     -23.4772     XY      -0.0000     YY     -22.9501
        XZ       0.0000     YZ      -0.0000     ZZ     -21.6617
    Octopole Moments (Debye-Ang^2)
       XXX       0.0000    XXY       0.0000    XYY       0.0000
       YYY       0.0000    XXZ      -3.8496    XYZ      -0.0000
       YYZ       0.0294    XZZ       0.0000    YZZ       0.0000
       ZZZ      -5.1940
    Hexadecapole Moments (Debye-Ang^3)
      XXXX     -26.5400   XXXY      -0.0000   XXYY     -21.5374
      XYYY      -0.0000   YYYY    -105.7474   XXXZ       0.0000
      XXYZ      -0.0000   XYYZ      -0.0000   YYYZ      -0.0000
      XXZZ     -15.5397   XYZZ       0.0000   YYZZ     -25.5357
      XZZZ       0.0000   YZZZ      -0.0000   ZZZZ     -56.1371
 -----------------------------------------------------------------
Archival summary:
1\1\n0098.mhg0\SP\ProcedureUnspecified\BasisUnspecified\12\yhljason\SunNov1501:06:502020SunNov1501:06:502020\0\\#,ProcedureUnspecified,BasisUnspecified,\\0,1\S\F,1,1.58748\F,1,1.58748,2,98.0458\\\@

 Total job time:  1381.99s(wall), 10936.72s(cpu) 
 Sun Nov 15 01:06:50 2020

        *************************************************************
        *                                                           *
        *  Thank you very much for using Q-Chem.  Have a nice day.  *
        *                                                           *
        *************************************************************


 
User input: 9 of 1410 of 14 
 
Q-Chem Developer Version!
                  Welcome to Q-Chem
     A Quantum Leap Into The Future Of Chemistry


 Q-Chem 5.1, Q-Chem, Inc., Pleasanton, CA (2018)

 Yihan Shao,  Zhengting Gan,  E. Epifanovsky,  A. T. B. Gilbert,  M. Wormit,  
 J. Kussmann,  A. W. Lange,  A. Behn,  Jia Deng,  Xintian Feng,  D. Ghosh,  
 M. Goldey,  P. R. Horn,  L. D. Jacobson,  I. Kaliman,  T. Kus,  A. Landau,  
 Jie Liu,  E. I. Proynov,  R. M. Richard,  R. P. Steele,  E. J. Sundstrom,  
 H. L. Woodcock III,  P. M. Zimmerman,  D. Zuev,  B. Albrecht,  E. Alguire,  
 S. A. Baeppler,  D. Barton,  Z. Benda,  Y. A. Bernard,  E. J. Berquist,  
 K. B. Bravaya,  H. Burton,  D. Casanova,  Chun-Min Chang,  Yunqing Chen,  
 A. Chien,  K. D. Closser,  M. P. Coons,  S. Coriani,  S. Dasgupta,  
 A. L. Dempwolff,  M. Diedenhofen,  Hainam Do,  R. G. Edgar,  Po-Tung Fang,  
 S. Faraji,  S. Fatehi,  Qingguo Feng,  K. D. Fenk,  J. Fosso-Tande,  
 Qinghui Ge,  A. Ghysels,  G. Gidofalvi,  J. Gomes,  J. Gonthier,  A. Gunina,  
 D. Hait,  M. W. D. Hanson-Heine,  P. H. P. Harbach,  A. W. Hauser,  
 J. E. Herr,  E. G. Hohenstein,  Z. C. Holden,  Kerwin Hui,  B. C. Huynh,  
 T.-C. Jagau,  Hyunjun Ji,  B. Kaduk,  K. Khistyaev,  Jaehoon Kim,  
 P. Klunzinger,  K. Koh,  D. Kosenkov,  L. Koulias,  T. Kowalczyk,  
 C. M. Krauter,  A. Kunitsa,  Ka Un Lao,  A. Laurent,  K. V. Lawler,  
 Joonho Lee,  D. Lefrancois,  S. Lehtola,  D. S. Levine,  Yi-Pei Li,  
 You-Sheng Lin,  Fenglai Liu,  E. Livshits,  A. Luenser,  P. Manohar,  
 E. Mansoor,  S. F. Manzer,  Shan-Ping Mao,  Yuezhi Mao,  N. Mardirossian,  
 A. V. Marenich,  T. Markovich,  L. A. Martinez-Martinez,  S. A. Maurer,  
 N. J. Mayhall,  S. C. McKenzie,  J.-M. Mewes,  A. F. Morrison,  
 J. W. Mullinax,  K. Nanda,  T. S. Nguyen-Beck,  R. Olivares-Amaya,  
 J. A. Parkhill,  T. M. Perrine,  F. Plasser,  P. Pokhilko,  S. Prager,  
 A. Prociuk,  E. Ramos,  D. R. Rehn,  F. Rob,  M. Schneider,  N. Sergueev,  
 S. M. Sharada,  S. Sharma,  D. W. Small,  T. Stauch,  T. Stein,  
 Yu-Chuan Su,  A. J. W. Thom,  A. Tkatchenko,  T. Tsuchimochi,  N. M. Tubman,  
 L. Vogt,  M. L. Vidal,  O. Vydrov,  M. A. Watson,  J. Wenzel,  
 M. de Wergifosse,  T. A. Wesolowski,  A. White,  J. Witte,  A. Yamada,  
 Jun Yang,  K. Yao,  S. Yeganeh,  S. R. Yost,  Zhi-Qiang You,  A. Zech,  
 Igor Ying Zhang,  Xing Zhang,  Yan Zhao,  Ying Zhu,  B. R. Brooks,  
 G. K. L. Chan,  C. J. Cramer,  M. S. Gordon,  W. J. Hehre,  A. Klamt,  
 M. W. Schmidt,  C. D. Sherrill,  D. G. Truhlar,  A. Aspuru-Guzik,  R. Baer,  
 A. T. Bell,  N. A. Besley,  Jeng-Da Chai,  A. E. DePrince, III,  
 R. A. DiStasio Jr.,  A. Dreuw,  B. D. Dunietz,  T. R. Furlani,  
 Chao-Ping Hsu,  Yousung Jung,  Jing Kong,  D. S. Lambrecht,  WanZhen Liang,  
 C. Ochsenfeld,  V. A. Rassolov,  L. V. Slipchenko,  J. E. Subotnik,  
 T. Van Voorhis,  J. M. Herbert,  A. I. Krylov,  P. M. W. Gill,  M. Head-Gordon

 Contributors to earlier versions of Q-Chem not listed above: 
 R. D. Adamson,  B. Austin,  J. Baker,  G. J. O. Beran,  K. Brandhorst,  
 S. T. Brown,  E. F. C. Byrd,  A. K. Chakraborty,  C.-L. Cheng,  
 Siu Hung Chien,  D. M. Chipman,  D. L. Crittenden,  H. Dachsel,  
 R. J. Doerksen,  A. D. Dutoi,  L. Fusti-Molnar,  W. A. Goddard III,  
 A. Golubeva-Zadorozhnaya,  S. R. Gwaltney,  G. Hawkins,  A. Heyden,  
 S. Hirata,  G. Kedziora,  F. J. Keil,  C. Kelley,  Jihan Kim,  R. A. King,  
 R. Z. Khaliullin,  P. P. Korambath,  W. Kurlancheek,  A. M. Lee,  M. S. Lee,  
 S. V. Levchenko,  Ching Yeh Lin,  D. Liotard,  R. C. Lochan,  I. Lotan,  
 P. E. Maslen,  N. Nair,  D. P. O'Neill,  D. Neuhauser,  E. Neuscamman,  
 C. M. Oana,  R. Olson,  B. Peters,  R. Peverati,  P. A. Pieniazek,  
 Y. M. Rhee,  J. Ritchie,  M. A. Rohrdanz,  E. Rosta,  N. J. Russ,  
 H. F. Schaefer III,  N. E. Schultz,  N. Shenvi,  A. C. Simmonett,  A. Sodt,  
 D. Stuck,  K. S. Thanthiriwatte,  V. Vanovschi,  Tao Wang,  A. Warshel,  
 C. F. Williams,  Q. Wu,  X. Xu,  W. Zhang

 Please cite Q-Chem as follows:
 Y. Shao et al., Mol. Phys. 113, 184-215 (2015)
 DOI: 10.1080/00268976.2014.952696

 Q-Chem 5.1.1 for Intel X86 EM64T Linux

 Parts of Q-Chem use Armadillo 8.300.2 (Tropical Shenanigans).
 http://arma.sourceforge.net/

 Q-Chem begins on Sun Nov 15 01:17:09 2020  

Host: n0098.mhg0
0

     Scratch files written to /local/scratch/users/yhljason/SF2_wB97M2_aug-cc-pcVQZ.inp20201114211643//
The previous job contains 0 fragments, simply inherited here
Input Ideriv = 0
Curr. Ideriv = -1
Max.  Ideriv = 0
Analytic post-HF gradients are not available with non-HF exchange
Input Ideriv = 0
Curr. Ideriv = 0
Max.  Ideriv = 0

Checking the input file for inconsistencies... 	...done.

--------------------------------------------------------------
User input:
--------------------------------------------------------------
$molecule
read
$end

$rem

jobtype sp
exchange wb97m(2)
xc_grid 000099000590
basis aug-cc-pcVQZ
max_scf_cycles 200
thresh 14
scf_convergence 8
mem_total 128000
cc_memory 96000
cc_backend xm
mem_static 1500
symmetry false
sym_ignore true
scf_guess read
unrestricted false
scf_algorithm gdm
n_frozen_core 0
$end

$multipole_field
YY -0.0001
$end



--------------------------------------------------------------
 ----------------------------------------------------------------
             Standard Nuclear Orientation (Angstroms)
    I     Atom           X                Y                Z
 ----------------------------------------------------------------
    1      S       0.0000000000     0.0000000000     0.5511000000
    2      F       0.0000000000     1.1985000000    -0.4899000000
    3      F       0.0000000000    -1.1985000000    -0.4899000000
 ----------------------------------------------------------------
 Nuclear Repulsion Energy =   113.8853868052 hartrees
 There are       17 alpha and       17 beta electrons
 Requested basis set is aug-cc-pCVQZ
 There are 92 shells and 352 basis functions

 Total QAlloc Memory Limit 128000 MB
 Mega-Array Size      1467 MB
 MEM_STATIC part      1500 MB

                       Distance Matrix (Angstroms)
             S (  1)   F (  2)
   F (  2)  1.587477
   F (  3)  1.587477  2.397000
 
 Applying Cartesian multipole field
    Component          Value
    ---------          -----
     (0,2,0)       -1.00000E-04
 Nucleus-field energy     =    -0.0092330740 hartrees
 A cutoff of  1.0D-14 yielded   3865 shell pairs
 There are     57969 function pairs (     96515 Cartesian)
 
 -------------------------------------------------------
 OpenMP Integral Computing Module                       
 Release: version 1.0, May 2013, Q-Chem Inc. Pittsburgh 
 -------------------------------------------------------
 Integral Job Info:
 Integral job number is                      11
 Integral operator is                         1
 short-range coefficients              15000000
 long-range coefficients              100000000
 Omega coefficients                         300
 if combine SR and LR in K                    1
 Integral screening is                        0
 Integral computing path is                   2
 max size of driver memory is           3200000
 size of driver memory is               1704330
 size of scratch memory is             28840424
 max col of scratch BK array              50625
 max len of scratch array in speh3         2114
 max len of scratch index in speh4           50
 max int batch size is                      520
[...]
 11.536  11.639  12.686  12.766  13.169  13.180  13.201  13.205
 13.218  13.257  13.293  13.311  13.408  13.480  13.497  13.518
 13.551  13.580  13.593  13.647  13.670  13.695  15.294  15.331
 15.336  15.361  15.441  15.466  15.479  15.500  15.528  15.537
 15.579  15.625  15.717  15.732  15.901  16.141  16.198  16.219
 16.237  16.398  16.647  16.660  16.665  16.721  16.795  16.861
 16.883  18.171  18.265  18.360  18.388  18.440  18.777  18.822
 21.187  21.194  28.355  31.237  31.264  31.333  31.547  31.921
 40.697  40.723  40.757  40.882  41.782  41.841  45.504  46.062
 46.338  55.076  55.077  55.079  55.080  55.083  55.086  55.088
 55.090  55.090  59.426  59.450  59.470  59.478  59.721  59.722
 59.749  59.784  59.804  59.824  65.263  65.298  65.338  65.338
 65.379  65.499  65.530  78.766  78.779  82.327  93.099  93.120
 93.171  93.284  93.575  97.204  97.210  97.210  97.215  97.218
 97.222  97.227  97.231  97.232  97.238  97.242  97.251  97.276
 97.279 144.197 144.222 144.241 144.346 144.856 144.897 144.947
145.411 145.604 250.129 250.144 250.153 250.160 250.289 250.290
250.307 250.325 250.334 250.346 269.451 269.468 389.393 493.813
493.828 493.844 493.932 494.514 494.5551121.1041121.129
 --------------------------------------------------------------
 
          Ground-State Mulliken Net Atomic Charges

     Atom                 Charge (a.u.)
  ----------------------------------------
      1 S                     0.787966
      2 F                    -0.393983
      3 F                    -0.393983
  ----------------------------------------
  Sum of atomic charges =    -0.000000

 -----------------------------------------------------------------
                    Cartesian Multipole Moments
 -----------------------------------------------------------------
    Charge (ESU x 10^10)
                -0.0000
    Dipole Moment (Debye)
         X       0.0000      Y       0.0000      Z       1.0182
       Tot       1.0182
    Quadrupole Moments (Debye-Ang)
        XX     -23.4801     XY       0.0000     YY     -22.9176
        XZ       0.0000     YZ      -0.0000     ZZ     -21.6881
    Octopole Moments (Debye-Ang^2)
       XXX       0.0000    XXY       0.0000    XYY      -0.0000
       YYY       0.0000    XXZ      -3.8611    XYZ      -0.0000
       YYZ       0.0176    XZZ       0.0000    YZZ      -0.0000
       ZZZ      -5.2332
    Hexadecapole Moments (Debye-Ang^3)
      XXXX     -26.5576   XXXY       0.0000   XXYY     -21.5246
      XYYY       0.0000   YYYY    -105.5709   XXXZ       0.0000
      XXYZ       0.0000   XYYZ      -0.0000   YYYZ       0.0000
      XXZZ     -15.5667   XYZZ       0.0000   YYZZ     -25.5347
      XZZZ      -0.0000   YZZZ       0.0000   ZZZZ     -56.2613
 -----------------------------------------------------------------
Archival summary:
1\1\n0098.mhg0\SP\ProcedureUnspecified\BasisUnspecified\12\yhljason\SunNov1502:12:142020SunNov1502:12:142020\0\\#,ProcedureUnspecified,BasisUnspecified,\\0,1\S\F,1,1.58748\F,1,1.58748,2,98.0458\\\@

 Total job time:  1371.68s(wall), 10860.79s(cpu) 
 Sun Nov 15 02:12:14 2020

        *************************************************************
        *                                                           *
        *  Thank you very much for using Q-Chem.  Have a nice day.  *
        *                                                           *
        *************************************************************


 
User input: 13 of 1414 of 14 
 
Q-Chem Developer Version!
                  Welcome to Q-Chem
     A Quantum Leap Into The Future Of Chemistry


 Q-Chem 5.1, Q-Chem, Inc., Pleasanton, CA (2018)

 Yihan Shao,  Zhengting Gan,  E. Epifanovsky,  A. T. B. Gilbert,  M. Wormit,  
 J. Kussmann,  A. W. Lange,  A. Behn,  Jia Deng,  Xintian Feng,  D. Ghosh,  
 M. Goldey,  P. R. Horn,  L. D. Jacobson,  I. Kaliman,  T. Kus,  A. Landau,  
 Jie Liu,  E. I. Proynov,  R. M. Richard,  R. P. Steele,  E. J. Sundstrom,  
 H. L. Woodcock III,  P. M. Zimmerman,  D. Zuev,  B. Albrecht,  E. Alguire,  
 S. A. Baeppler,  D. Barton,  Z. Benda,  Y. A. Bernard,  E. J. Berquist,  
 K. B. Bravaya,  H. Burton,  D. Casanova,  Chun-Min Chang,  Yunqing Chen,  
 A. Chien,  K. D. Closser,  M. P. Coons,  S. Coriani,  S. Dasgupta,  
 A. L. Dempwolff,  M. Diedenhofen,  Hainam Do,  R. G. Edgar,  Po-Tung Fang,  
 S. Faraji,  S. Fatehi,  Qingguo Feng,  K. D. Fenk,  J. Fosso-Tande,  
 Qinghui Ge,  A. Ghysels,  G. Gidofalvi,  J. Gomes,  J. Gonthier,  A. Gunina,  
 D. Hait,  M. W. D. Hanson-Heine,  P. H. P. Harbach,  A. W. Hauser,  
 J. E. Herr,  E. G. Hohenstein,  Z. C. Holden,  Kerwin Hui,  B. C. Huynh,  
 T.-C. Jagau,  Hyunjun Ji,  B. Kaduk,  K. Khistyaev,  Jaehoon Kim,  
 P. Klunzinger,  K. Koh,  D. Kosenkov,  L. Koulias,  T. Kowalczyk,  
 C. M. Krauter,  A. Kunitsa,  Ka Un Lao,  A. Laurent,  K. V. Lawler,  
 Joonho Lee,  D. Lefrancois,  S. Lehtola,  D. S. Levine,  Yi-Pei Li,  
 You-Sheng Lin,  Fenglai Liu,  E. Livshits,  A. Luenser,  P. Manohar,  
 E. Mansoor,  S. F. Manzer,  Shan-Ping Mao,  Yuezhi Mao,  N. Mardirossian,  
 A. V. Marenich,  T. Markovich,  L. A. Martinez-Martinez,  S. A. Maurer,  
 N. J. Mayhall,  S. C. McKenzie,  J.-M. Mewes,  A. F. Morrison,  
 J. W. Mullinax,  K. Nanda,  T. S. Nguyen-Beck,  R. Olivares-Amaya,  
 J. A. Parkhill,  T. M. Perrine,  F. Plasser,  P. Pokhilko,  S. Prager,  
 A. Prociuk,  E. Ramos,  D. R. Rehn,  F. Rob,  M. Schneider,  N. Sergueev,  
 S. M. Sharada,  S. Sharma,  D. W. Small,  T. Stauch,  T. Stein,  
 Yu-Chuan Su,  A. J. W. Thom,  A. Tkatchenko,  T. Tsuchimochi,  N. M. Tubman,  
 L. Vogt,  M. L. Vidal,  O. Vydrov,  M. A. Watson,  J. Wenzel,  
 M. de Wergifosse,  T. A. Wesolowski,  A. White,  J. Witte,  A. Yamada,  
 Jun Yang,  K. Yao,  S. Yeganeh,  S. R. Yost,  Zhi-Qiang You,  A. Zech,  
 Igor Ying Zhang,  Xing Zhang,  Yan Zhao,  Ying Zhu,  B. R. Brooks,  
 G. K. L. Chan,  C. J. Cramer,  M. S. Gordon,  W. J. Hehre,  A. Klamt,  
 M. W. Schmidt,  C. D. Sherrill,  D. G. Truhlar,  A. Aspuru-Guzik,  R. Baer,  
 A. T. Bell,  N. A. Besley,  Jeng-Da Chai,  A. E. DePrince, III,  
 R. A. DiStasio Jr.,  A. Dreuw,  B. D. Dunietz,  T. R. Furlani,  
 Chao-Ping Hsu,  Yousung Jung,  Jing Kong,  D. S. Lambrecht,  WanZhen Liang,  
 C. Ochsenfeld,  V. A. Rassolov,  L. V. Slipchenko,  J. E. Subotnik,  
 T. Van Voorhis,  J. M. Herbert,  A. I. Krylov,  P. M. W. Gill,  M. Head-Gordon

 Contributors to earlier versions of Q-Chem not listed above: 
 R. D. Adamson,  B. Austin,  J. Baker,  G. J. O. Beran,  K. Brandhorst,  
 S. T. Brown,  E. F. C. Byrd,  A. K. Chakraborty,  C.-L. Cheng,  
 Siu Hung Chien,  D. M. Chipman,  D. L. Crittenden,  H. Dachsel,  
 R. J. Doerksen,  A. D. Dutoi,  L. Fusti-Molnar,  W. A. Goddard III,  
 A. Golubeva-Zadorozhnaya,  S. R. Gwaltney,  G. Hawkins,  A. Heyden,  
 S. Hirata,  G. Kedziora,  F. J. Keil,  C. Kelley,  Jihan Kim,  R. A. King,  
 R. Z. Khaliullin,  P. P. Korambath,  W. Kurlancheek,  A. M. Lee,  M. S. Lee,  
 S. V. Levchenko,  Ching Yeh Lin,  D. Liotard,  R. C. Lochan,  I. Lotan,  
 P. E. Maslen,  N. Nair,  D. P. O'Neill,  D. Neuhauser,  E. Neuscamman,  
 C. M. Oana,  R. Olson,  B. Peters,  R. Peverati,  P. A. Pieniazek,  
 Y. M. Rhee,  J. Ritchie,  M. A. Rohrdanz,  E. Rosta,  N. J. Russ,  
 H. F. Schaefer III,  N. E. Schultz,  N. Shenvi,  A. C. Simmonett,  A. Sodt,  
 D. Stuck,  K. S. Thanthiriwatte,  V. Vanovschi,  Tao Wang,  A. Warshel,  
 C. F. Williams,  Q. Wu,  X. Xu,  W. Zhang

 Please cite Q-Chem as follows:
 Y. Shao et al., Mol. Phys. 113, 184-215 (2015)
 DOI: 10.1080/00268976.2014.952696

 Q-Chem 5.1.1 for Intel X86 EM64T Linux

 Parts of Q-Chem use Armadillo 8.300.2 (Tropical Shenanigans).
 http://arma.sourceforge.net/

 Q-Chem begins on Sun Nov 15 02:22:34 2020  

Host: n0098.mhg0
0

     Scratch files written to /local/scratch/users/yhljason/SF2_wB97M2_aug-cc-pcVQZ.inp20201114211643//
The previous job contains 0 fragments, simply inherited here
Input Ideriv = 0
Curr. Ideriv = -1
Max.  Ideriv = 0
Analytic post-HF gradients are not available with non-HF exchange
Input Ideriv = 0
Curr. Ideriv = 0
Max.  Ideriv = 0

Checking the input file for inconsistencies... 	...done.

--------------------------------------------------------------
User input:
--------------------------------------------------------------
$molecule
read
$end

$rem

jobtype sp
exchange wb97m(2)
xc_grid 000099000590
basis aug-cc-pcVQZ
max_scf_cycles 200
thresh 14
scf_convergence 8
mem_total 128000
cc_memory 96000
cc_backend xm
mem_static 1500
symmetry false
sym_ignore true
scf_guess read
unrestricted false
scf_algorithm gdm
n_frozen_core 0
$end

$multipole_field
ZZ -0.0001
$end


--------------------------------------------------------------
 ----------------------------------------------------------------
             Standard Nuclear Orientation (Angstroms)
    I     Atom           X                Y                Z
 ----------------------------------------------------------------
    1      S       0.0000000000     0.0000000000     0.5511000000
    2      F       0.0000000000     1.1985000000    -0.4899000000
    3      F       0.0000000000    -1.1985000000    -0.4899000000
 ----------------------------------------------------------------
 Nuclear Repulsion Energy =   113.8853868052 hartrees
 There are       17 alpha and       17 beta electrons
 Requested basis set is aug-cc-pCVQZ
 There are 92 shells and 352 basis functions

 Total QAlloc Memory Limit 128000 MB
 Mega-Array Size      1467 MB
 MEM_STATIC part      1500 MB

                       Distance Matrix (Angstroms)
             S (  1)   F (  2)
   F (  2)  1.587477
   F (  3)  1.587477  2.397000
 
 Applying Cartesian multipole field
    Component          Value
    ---------          -----
     (0,0,2)       -1.00000E-04
 Nucleus-field energy     =    -0.0032780288 hartrees
 A cutoff of  1.0D-14 yielded   3865 shell pairs
 There are     57969 function pairs (     96515 Cartesian)
 
 -------------------------------------------------------
 OpenMP Integral Computing Module                       
 Release: version 1.0, May 2013, Q-Chem Inc. Pittsburgh 
 -------------------------------------------------------
 Integral Job Info:
 Integral job number is                      11
 Integral operator is                         1
 short-range coefficients              15000000
 long-range coefficients              100000000
 Omega coefficients                         300
 if combine SR and LR in K                    1
 Integral screening is                        0
 Integral computing path is                   2
 max size of driver memory is           3200000
 size of driver memory is               1704330
 size of scratch memory is             28840424
 max col of scratch BK array              50625
 max len of scratch array in speh3         2114
 max len of scratch index in speh4           50
 max int batch size is                      520
 min int batch size is                       52
 fixed nKL is                                21
 max L of basis functions is                  4
 order of int derivative is                   0
 number of shells is                         92
 number of basis is                         452
 number of cartesian basis is               452
 number of contracted shell pairs          3865
 number of primitive shell pairs          11740
 maxK2 (contraction) of shell pair          169
 max number of K2 of shell pair               1
 max number of CS2 of shell pair            403
 max number of PS2 of shell pair           1014
 mem total for path MDJ                  866296
 -------------------------------------------------------
 Smallest overlap matrix eigenvalue = 2.68E-05
 Guess MOs from SCF MO coefficient file
 Reading MOs from coefficient file
 Reading MOs from coefficient file
 Long-range K will be added via erf
 Coulomb attenuation parameter = 0.3 bohr**(-1)
 A restricted hybrid HF-DFT SCF calculation will be
 performed using Geometric Direct Minimization
 Exchange:     0.1500 Hartree-Fock + 1.0000 wB97M-V + LR-HF
 Correlation:  1.0000 wB97M-V
 Using Euler-Maclaurin-Lebedev (99,590) quadrature formula
 Nonlocal Correlation:  VV10 with C = 0.0100 and b = 6.00 and scale = 1.00000
 Grid used for NLC:  SG-1 standard quadrature
 SCF converges when RMS gradient is below 1.0E-08
Using Q-Chem read-in guess as SCF_GUESS READ specified.

 using 8 threads for integral computing
 -------------------------------------------------------
 OpenMP Integral computing Module                
 Release: version 1.0, May 2013, Q-Chem Inc. Pittsburgh 
 -------------------------------------------------------
 using 8 threads for integral computing
 -------------------------------------------------------
 OpenMP Integral computing Module                
 Release: version 1.0, May 2013, Q-Chem Inc. Pittsburgh 
 -------------------------------------------------------
TIMEINFO->: J/JK contribution 415.93 sec.
 -------------------------------------------------------
 OpenMP BLAS3 based DFT computing Module                
 Release: version 1.0, May 2013, Q-Chem Inc. Pittsburgh 
 -------------------------------------------------------
 -------------------------------------------------------
 OpenMP BLAS3 based DFT computing Module                
 Release: version 1.0, May 2013, Q-Chem Inc. Pittsburgh 
 -------------------------------------------------------
 -------------------------------------------------------
 OpenMP BLAS3 based DFT computing Module                
 Release: version 1.0, May 2013, Q-Chem Inc. Pittsburgh 
 -------------------------------------------------------
 ---------------------------------------
  Cycle       Energy        RMS Gradient
 ---------------------------------------
    1    -597.8880367567      3.51E-10 Normal BFGS step
TIMEINFO->: J/JK contribution 417.25 sec.
 Nonlocal correlation =     0.0457503150
    2    -597.8880367567      1.74E-10 Convergence criterion met
 ---------------------------------------
 wB97M-V orbitals are now ready for the wB97M(2) calculation.
 wB97M(2) energy = Exch (0.62194 SRHF + 1.0 LRHF + wB97M(2)_EXCH) + 
               Corr (wB97M(2)_CORR + 0.34096 MP2 + 0.65904 VV10(b=10))
 SCF time:  CPU 1609.02 s  wall 202.30 s
 SCF   energy in the final basis set = -597.67225157
 Total energy in the final basis set = -597.67225157
 
 Components of the MP2 correlation energy:
        aaaa  correlation energy =        -0.0608291658 au
        abab  correlation energy =        -0.3704581273 au
        bbbb  correlation energy =        -0.0608291658 au
        non-Brillouin singles    =        -0.0000000000 au

 Total  MP2   correlation energy =                    -0.49211646 au
        MP2         total energy =                  -598.16436803 au
 
 --------------------------------------------------------------
 
                    Orbital Energies (a.u.)
 --------------------------------------------------------------
 
 Alpha MOs
 -- Occupied --
-89.322 -24.951 -24.951  -8.242  -6.155  -6.151  -6.139  -1.410
 -1.369  -0.865  -0.684  -0.647  -0.632  -0.583  -0.564  -0.539
 -0.352
 -- Virtual --
  0.007   0.031   0.039   0.056   0.073   0.095   0.124   0.152
  0.159   0.164   0.167   0.214   0.225   0.230   0.235   0.248
  0.260   0.273   0.322   0.363   0.371   0.431   0.461   0.468
  0.471   0.480   0.496   0.533   0.541   0.544   0.573   0.581
  0.587   0.657   0.719   0.725   0.733   0.735   0.735   0.741
  0.773   0.789   0.798   0.820   0.862   0.994   0.996   1.008
  1.023   1.082   1.114   1.188   1.197   1.243   1.248   1.268
  1.285   1.286   1.365   1.365   1.378   1.396   1.419   1.437
  1.457   1.467   1.485   1.485   1.515   1.615   1.654   1.678
  1.716   1.776   1.795   1.832   1.874   1.903   1.928   1.972
  1.988   2.006   2.044   2.092   2.181   2.185   2.226   2.247
  2.249   2.250   2.305   2.330   2.415   2.468   2.471   2.526
  2.685   2.729   2.731   2.731   2.751   2.788   3.090   3.091
  3.117   3.134   3.218   3.294   3.299   3.343   3.356   3.383
  3.404   3.409   3.441   3.456   3.515   3.538   3.574   3.604
  3.658   3.704   3.781   3.976   4.109   4.113   4.203   4.446
  4.451   4.506   4.512   4.563   4.610   4.637   4.656   4.678
  4.730   4.799   4.928   5.066   5.083   5.091   5.135   5.150
  5.207   5.231   5.257   5.284   5.303   5.303   5.355   5.375
  5.404   5.465   5.470   5.481   5.491   5.504   5.544   5.581
  5.640   5.695   5.706   5.791   5.841   5.876   5.885   6.128
  6.439   6.463   6.501   6.511   6.518   6.636   6.728   7.008
  8.792   9.700   9.733   9.823  10.315  10.651  11.431  11.466
 11.537  11.640  12.687  12.767  13.170  13.181  13.202  13.206
 13.219  13.258  13.294  13.311  13.409  13.481  13.498  13.518
 13.552  13.580  13.594  13.648  13.671  13.696  15.295  15.331
 15.337  15.361  15.442  15.467  15.479  15.501  15.529  15.538
 15.580  15.626  15.718  15.733  15.902  16.142  16.199  16.220
 16.237  16.399  16.648  16.661  16.666  16.722  16.796  16.862
 16.884  18.171  18.266  18.361  18.389  18.441  18.778  18.823
 21.188  21.195  28.356  31.238  31.265  31.333  31.548  31.921
 40.698  40.724  40.758  40.882  41.783  41.842  45.505  46.063
 46.339  55.077  55.078  55.080  55.081  55.084  55.087  55.089
 55.091  55.091  59.427  59.451  59.470  59.479  59.722  59.723
 59.750  59.785  59.805  59.825  65.264  65.299  65.338  65.339
 65.380  65.500  65.531  78.767  78.780  82.328  93.100  93.121
 93.172  93.285  93.576  97.205  97.210  97.211  97.216  97.219
 97.223  97.228  97.232  97.233  97.239  97.243  97.252  97.276
 97.280 144.198 144.223 144.242 144.347 144.857 144.897 144.947
145.412 145.605 250.130 250.145 250.154 250.161 250.290 250.291
250.308 250.326 250.335 250.347 269.452 269.469 389.394 493.814
493.829 493.845 493.933 494.515 494.5561121.1051121.129
 --------------------------------------------------------------
 
          Ground-State Mulliken Net Atomic Charges

     Atom                 Charge (a.u.)
  ----------------------------------------
      1 S                     0.787941
      2 F                    -0.393971
      3 F                    -0.393971
  ----------------------------------------
  Sum of atomic charges =    -0.000000

 -----------------------------------------------------------------
                    Cartesian Multipole Moments
 -----------------------------------------------------------------
    Charge (ESU x 10^10)
                -0.0000
    Dipole Moment (Debye)
         X       0.0000      Y       0.0000      Z       1.0298
       Tot       1.0298
    Quadrupole Moments (Debye-Ang)
        XX     -23.4739     XY      -0.0000     YY     -22.9218
        XZ       0.0000     YZ      -0.0000     ZZ     -21.6396
    Octopole Moments (Debye-Ang^2)
       XXX       0.0000    XXY      -0.0000    XYY       0.0000
       YYY       0.0000    XXZ      -3.8425    XYZ       0.0000
       YYZ       0.0199    XZZ       0.0000    YZZ      -0.0000
       ZZZ      -5.1715
    Hexadecapole Moments (Debye-Ang^3)
      XXXX     -26.5161   XXXY      -0.0000   XXYY     -21.5167
      XYYY      -0.0000   YYYY    -105.5850   XXXZ       0.0000
      XXYZ      -0.0000   XYYZ      -0.0000   YYYZ      -0.0000
      XXZZ     -15.5137   XYZZ       0.0000   YYZZ     -25.4947
      XZZZ       0.0000   YZZZ      -0.0000   ZZZZ     -56.0270
 -----------------------------------------------------------------
Archival summary:
1\1\n0098.mhg0\SP\ProcedureUnspecified\BasisUnspecified\12\yhljason\SunNov1502:45:262020SunNov1502:45:262020\0\\#,ProcedureUnspecified,BasisUnspecified,\\0,1\S\F,1,1.58748\F,1,1.58748,2,98.0458\\\@

 Total job time:  1371.34s(wall), 10858.01s(cpu) 
 Sun Nov 15 02:45:26 2020

        *************************************************************
        *                                                           *
        *  Thank you very much for using Q-Chem.  Have a nice day.  *
        *                                                           *
        *************************************************************


