                  Welcome to Q-Chem
     A Quantum Leap Into The Future Of Chemistry


 Q-Chem 5.3 (devel), Q-Chem, Inc., Pleasanton, CA (2020)

 Yihan Shao,  Zhengting Gan,  E. Epifanovsky,  A. T. B. Gilbert,  M. Wormit,  
 J. Kussmann,  A. W. Lange,  A. Behn,  Jia Deng,  Xintian Feng,  D. Ghosh,  
 M. Goldey,  P. R. Horn,  L. D. Jacobson,  I. Kaliman,  T. Kus,  A. Landau,  
 Jie Liu,  E. I. Proynov,  R. M. Richard,  R. P. Steele,  E. J. Sundstrom,  
 H. L. Woodcock III,  P. M. Zimmerman,  D. Zuev,  B. Alam,  B. Albrecht,  
 E. Alguire,  S. A. Baeppler,  D. Barton,  Z. Benda,  Y. A. Bernard,  
 E. J. Berquist,  K. B. Bravaya,  H. Burton,  K. Carter-Fenk,  D. Casanova,  
 Chun-Min Chang,  Yunqing Chen,  A. Chien,  K. D. Closser,  M. P. Coons,  
 S. Coriani,  S. Dasgupta,  A. L. Dempwolff,  M. Diedenhofen,  Hainam Do,  
 R. G. Edgar,  Po-Tung Fang,  S. Faraji,  S. Fatehi,  Qingguo Feng,  
 J. Fosso-Tande,  J. Gayvert,  Qinghui Ge,  A. Ghysels,  G. Gidofalvi,  
 J. Gomes,  J. Gonthier,  A. Gunina,  D. Hait,  M. W. D. Hanson-Heine,  
 P. H. P. Harbach,  A. W. Hauser,  M. F. Herbst,  J. E. Herr,  
 E. G. Hohenstein,  Z. C. Holden,  Kerwin Hui,  B. C. Huynh,  T.-C. Jagau,  
 Hyunjun Ji,  B. Kaduk,  K. Khistyaev,  Jaehoon Kim,  P. Klunzinger,  K. Koh,  
 D. Kosenkov,  L. Koulias,  T. Kowalczyk,  C. M. Krauter,  A. Kunitsa,  
 Ka Un Lao,  A. Laurent,  K. V. Lawler,  Joonho Lee,  D. Lefrancois,  
 S. Lehtola,  D. S. Levine,  Yi-Pei Li,  You-Sheng Lin,  Fenglai Liu,  
 Kuan-Yu Liu,  E. Livshits,  M. Loipersberger,  A. Luenser,  P. Manohar,  
 E. Mansoor,  S. F. Manzer,  Shan-Ping Mao,  Yuezhi Mao,  N. Mardirossian,  
 A. V. Marenich,  T. Markovich,  L. A. Martinez-Martinez,  S. A. Maurer,  
 N. J. Mayhall,  S. C. McKenzie,  J.-M. Mewes,  P. Morgante,  A. F. Morrison,  
 J. W. Mullinax,  K. Nanda,  T. S. Nguyen-Beck,  R. Olivares-Amaya,  
 K. J. Oosterbaan,  J. A. Parkhill,  S. K. Paul,  F. Pavosevic,  Zheng Pei,  
 T. M. Perrine,  F. Plasser,  P. Pokhilko,  S. Prager,  A. Prociuk,  
 E. Ramos,  B. Rana,  D. R. Rehn,  F. Rob,  M. Scheurer,  M. Schneider,  
 N. Sergueev,  S. M. Sharada,  S. Sharma,  D. W. Small,  T. Stauch,  
 C. J. Stein,  T. Stein,  Yu-Chuan Su,  S. P. Veccham,  Zhen Tao,  
 A. J. W. Thom,  A. Tkatchenko,  T. Tsuchimochi,  N. M. Tubman,  L. Vogt,  
 M. L. Vidal,  O. Vydrov,  M. A. Watson,  J. Wenzel,  M. de Wergifosse,  
 T. A. Wesolowski,  A. White,  J. Witte,  A. Yamada,  Jun Yang,  K. Yao,  
 S. Yeganeh,  S. R. Yost,  Zhi-Qiang You,  A. Zech,  Igor Ying Zhang,  
 Xing Zhang,  Yan Zhao,  Ying Zhu,  B. R. Brooks,  G. K. L. Chan,  
 C. J. Cramer,  M. S. Gordon,  W. J. Hehre,  A. Klamt,  M. W. Schmidt,  
 C. D. Sherrill,  D. G. Truhlar,  A. Aspuru-Guzik,  R. Baer,  A. T. Bell,  
 N. A. Besley,  Jeng-Da Chai,  A. E. DePrince, III,  R. A. DiStasio Jr.,  
 A. Dreuw,  B. D. Dunietz,  T. R. Furlani,  Chao-Ping Hsu,  Yousung Jung,  
 Jing Kong,  D. S. Lambrecht,  WanZhen Liang,  C. Ochsenfeld,  
 V. A. Rassolov,  L. V. Slipchenko,  J. E. Subotnik,  T. Van Voorhis,  
 J. M. Herbert,  A. I. Krylov,  P. M. W. Gill,  M. Head-Gordon

 Contributors to earlier versions of Q-Chem not listed above: 
 R. D. Adamson,  B. Austin,  J. Baker,  G. J. O. Beran,  K. Brandhorst,  
 S. T. Brown,  E. F. C. Byrd,  A. K. Chakraborty,  C.-L. Cheng,  
 Siu Hung Chien,  D. M. Chipman,  D. L. Crittenden,  H. Dachsel,  
 R. J. Doerksen,  A. D. Dutoi,  L. Fusti-Molnar,  W. A. Goddard III,  
 A. Golubeva-Zadorozhnaya,  S. R. Gwaltney,  G. Hawkins,  A. Heyden,  
 S. Hirata,  G. Kedziora,  F. J. Keil,  C. Kelley,  Jihan Kim,  R. A. King,  
 R. Z. Khaliullin,  P. P. Korambath,  W. Kurlancheek,  A. M. Lee,  M. S. Lee,  
 S. V. Levchenko,  Ching Yeh Lin,  D. Liotard,  R. C. Lochan,  I. Lotan,  
 P. E. Maslen,  N. Nair,  D. P. O'Neill,  D. Neuhauser,  E. Neuscamman,  
 C. M. Oana,  R. Olson,  B. Peters,  R. Peverati,  P. A. Pieniazek,  
 Y. M. Rhee,  J. Ritchie,  M. A. Rohrdanz,  E. Rosta,  N. J. Russ,  
 H. F. Schaefer III,  N. E. Schultz,  N. Shenvi,  A. C. Simmonett,  A. Sodt,  
 D. Stuck,  K. S. Thanthiriwatte,  V. Vanovschi,  Tao Wang,  A. Warshel,  
 C. F. Williams,  Q. Wu,  X. Xu,  W. Zhang

 Please cite Q-Chem as follows:
 Y. Shao et al., Mol. Phys. 113, 184-215 (2015)
 DOI: 10.1080/00268976.2014.952696

 Q-Chem 5.3.0 for Intel X86 EM64T Linux

 Parts of Q-Chem use Armadillo 9.800.1 (Horizon Scraper).
 http://arma.sourceforge.net/

 Q-Chem begins on Sat Aug 22 16:43:07 2020  

n0032.mhg0
Host: 0

     Scratch files written to /local/scratch/users/yhljason/ClCN_mBEEF_aug-pc-4.inp20200822092047//
Processing $rem in /clusterfs/mhg/diptarka/qchem_transmom//config/preferences:
Processing $rem in /global/home/users/yhljason/.qchemrc:

Checking the input file for inconsistencies... 	...done.

--------------------------------------------------------------
User input:
--------------------------------------------------------------
$molecule
0 1
Cl1     0.0000  0.0000  1.6290
C2      0.0000  0.0000  0.0000
N3      0.0000  0.0000  -1.1606
$end

$rem
jobtype sp
method mBEEF
xc_grid 000099000590
basis aug-pc-4
max_scf_cycles 200
thresh 14
scf_convergence 8
scf_algorithm gdm
symmetry false
sym_ignore true
unrestricted true
gen_scfman true
internal_stability_iter 15
internal_stability_davidson_iter 200
mem_total 64000
mem_static 1500
n_frozen_core 0
$end


--------------------------------------------------------------
 ----------------------------------------------------------------
             Standard Nuclear Orientation (Angstroms)
    I     Atom           X                Y                Z
 ----------------------------------------------------------------
    1      Cl      0.0000000000     0.0000000000     1.6290000000
    2      C       0.0000000000     0.0000000000     0.0000000000
    3      N       0.0000000000     0.0000000000    -1.1606000000
 ----------------------------------------------------------------
 Nuclear Repulsion Energy =          74.85832132 hartrees
 There are       15 alpha and       15 beta electrons
 Requested basis set is aug-pc-4
 There are 97 shells and 431 basis functions

 Total QAlloc Memory Limit  64000 MB
 Mega-Array Size      1467 MB
 MEM_STATIC part      1500 MB

                       Distance Matrix (Angstroms)
             Cl(  1)   C (  2)
   C (  2)  1.629000
   N (  3)  2.789600  1.160600

 A cutoff of  1.0D-14 yielded   4660 shell pairs
 There are     93040 function pairs (    182581 Cartesian)
 Smallest overlap matrix eigenvalue = 3.68E-07
 Linear dependence detected in AO basis
 Tighter screening thresholds may be required for diffuse basis sets
 Use S2THRESH > 14 and THRESH = 14 in case of SCF convergence issues
 Number of orthogonalized atomic orbitals = 430
 Maximum deviation from orthogonality = 2.565E-10

 Scale SEOQF with 1.000000e-01/1.000000e-01/1.000000e-01

 Standard Electronic Orientation quadrupole field applied
 Nucleus-field energy     =    -0.0000000058 hartrees
 Guess from superposition of atomic densities
 Warning:  Energy on first SCF cycle will be non-variational
 SAD guess density has 30.000000 electrons

 -----------------------------------------------------------------------
  General SCF calculation program by
  Eric Jon Sundstrom, Paul Horn, Yuezhi Mao, Dmitri Zuev, Alec White,
  David Stuck, Shaama M.S., Shane Yost, Joonho Lee, David Small,
  Daniel Levine, Susi Lehtola, Hugh Burton, Evgeny Epifanovsky,
  Bang C. Huynh
 -----------------------------------------------------------------------
 Exchange:  mBEEF      Correlation:  PBEsol
 Using Euler-Maclaurin-Lebedev (99,590) quadrature formula
Running Object-Oriented UKS (UHF)
performing a single roothaan step with Fock from read density so that orbitals are available to all algorithms
energy of the guess density (C=0) -554.702343332829
We will preform up to 15 macro iterations over saddle points until a stable solution is found
Energy prior to optimization (guess energy) = -554.185198633402
Begin Timing: Total SCF Calculation
Begin Timing: SCF Single Stationary Point Calculation
begin iterations for algorithm: GDM          
the SCF tolerance is set to 1.00e-08
    1    -554.1851986334      2.94e-01     00000  Descent step
    2    -554.1806102453      3.81e-01     00000 Line search: overstep
    3    -554.2685412470      5.15e-02     00000  Normal BFGS step
    4    -554.2711346388      6.47e-02     00000  Normal BFGS step
    5    -554.2800401873      1.55e-02     00000  Normal BFGS step
    6    -554.2807211346      4.34e-03     00000  Normal BFGS step
    7    -554.2811266674      1.07e-03     00000  Normal BFGS step
    8    -554.2811300568      4.60e-04     00000  Normal BFGS step
    9    -554.2811304533      2.08e-05     00000  Normal BFGS step
   10    -554.2811304556      1.28e-05     00000  Normal BFGS step
   11    -554.2811304570      1.56e-06     00000  Normal BFGS step
   12    -554.2811304570      1.05e-06     00000  Normal BFGS step
   13    -554.2811304570      1.87e-06     00000  Normal BFGS step
   14    -554.2811304570      7.32e-08     00000  Normal BFGS step
   15    -554.2811304570      6.06e-08     00000  Normal BFGS step
   16    -554.2811304570      6.39e-08     00000  Normal BFGS step
   17    -554.2811304570      1.95e-08     00000  Normal BFGS step
   18    -554.2811304570      1.69e-09     00000 Convergence criterion met
Timing for Single Stationary Point: 3631.00s (wall), 28648.66s (cpu)
Begin Timing: Stability
===================================================
Beginning Test for Internal Stability
===================================================
generating davidson guess vectors based on koopmans excitations
 Warning: Hessian-vector products not implemented
 Finite difference Hessian-vector products will be used.
computing hessian-vector products by finite difference
    1      7.23e-01     00000 Davidson Iteration
computing hessian-vector products by finite difference
    2      4.21e-01     00000 Davidson Iteration
computing hessian-vector products by finite difference
    3      2.09e-01     00000 Davidson Iteration
computing hessian-vector products by finite difference
    4      1.03e-01     00000 Davidson Iteration
computing hessian-vector products by finite difference
    5      4.76e-02     00000 Davidson Iteration
computing hessian-vector products by finite difference
    6      3.56e-02     00000 Davidson Iteration
computing hessian-vector products by finite difference
    7      1.52e-02     00000 Davidson Iteration
computing hessian-vector products by finite difference
    8      9.73e-03     00000 Davidson Iteration
computing hessian-vector products by finite difference
    9      1.12e-02     00000 Davidson Iteration
computing hessian-vector products by finite difference
   10      2.84e-03     00000 Davidson Iteration
computing hessian-vector products by finite difference
   11      8.85e-03     00000 Davidson Iteration
computing hessian-vector products by finite difference
   12      2.68e-03     00000 Davidson Iteration
computing hessian-vector products by finite difference
   13      1.70e-03     00000 Davidson Iteration
computing hessian-vector products by finite difference
   14      1.74e-03     00000 Davidson Iteration
computing hessian-vector products by finite difference
   15      1.69e-03     00000 Davidson Iteration
computing hessian-vector products by finite difference
   16      1.44e-03     00000 Davidson Iteration
computing hessian-vector products by finite difference
   17      1.12e-03     00000 Davidson Iteration
computing hessian-vector products by finite difference
   18      8.90e-04     00000 Davidson Iteration
computing hessian-vector products by finite difference
   19      2.16e-04     00000 Davidson Iteration
computing hessian-vector products by finite difference
   20      1.34e-04     00000 Davidson Iteration
computing hessian-vector products by finite difference
   21      2.56e-05     00000 Davidson Iteration
computing hessian-vector products by finite difference
   22      2.45e-04     00000 Davidson Iteration
computing hessian-vector products by finite difference
   23      9.37e-05     00000 Davidson Converged
converged_eigenvalues
   0.2443
   0.2763
Threshold for negative eigenvalues: -1.0e-05
solution was a local minimum (stable)
===================================================
End Test for Internal Stability
===================================================
Timing for Internal Stability: 22605.00s (wall), 177603.71s (cpu)
Our SCF solution is stable!
Timing for Total SCF: 26236.00s (wall), 206252.53s (cpu)
 Total energy in the final basis set =     -554.2811304570
<S^2> =         -0.000000000
    ==================================================
              The end of Object-Oriented SCFman       
    ==================================================

 --------------------------------------------------------------

                    Orbital Energies (a.u.)
 --------------------------------------------------------------

 Alpha MOs
 -- Occupied --
******** -14.1787 -10.1402  -9.4667  -7.2057  -7.1940  -7.1940  -0.9450
 -0.8890  -0.5677  -0.4240  -0.4240  -0.3736  -0.3226  -0.3226
 -- Virtual --
 -0.0570  -0.0332  -0.0332  -0.0070   0.0168   0.0180   0.0180   0.0393
  0.0480   0.0480   0.0648   0.0654   0.0654   0.0727   0.0727   0.0754
  0.0802   0.1010   0.1010   0.1178   0.1396   0.1396   0.1404   0.1404
  0.1591   0.1741   0.1741   0.1890   0.1890   0.1911   0.1911   0.1980
  0.2011   0.2011   0.2141   0.2252   0.2409   0.2409   0.2539   0.2539
  0.2733   0.2847   0.2918   0.2918   0.2972   0.2972   0.3172   0.3172
  0.3235   0.3235   0.3238   0.3315   0.3315   0.3507   0.3507   0.3547
  0.3547   0.3987   0.4021   0.4021   0.4218   0.4218   0.4411   0.4440
  0.4440   0.4580   0.4580   0.4739   0.4824   0.4824   0.4918   0.4918
  0.4991   0.4991   0.5046   0.5046   0.5050   0.5129   0.5354   0.5354
  0.5361   0.5361   0.5663   0.5663   0.5788   0.5788   0.5885   0.5910
  0.5910   0.5970   0.5970   0.6073   0.6313   0.6582   0.6582   0.6759
  0.6759   0.6780   0.6781   0.7102   0.7292   0.7292   0.7497   0.7497
  0.7638   0.7638   0.7800   0.7800   0.7860   0.7921   0.7921   0.7978
  0.8232   0.8232   0.8250   0.8250   0.8319   0.8319   0.8836   0.8836
  0.8957   0.8957   0.9012   0.9012   0.9147   0.9431   0.9569   0.9569
  0.9712   0.9712   0.9806   0.9806   0.9910   0.9910   0.9984   0.9984
  1.0214   1.0492   1.0492   1.0679   1.0769   1.1014   1.1014   1.1140
  1.1140   1.1272   1.1272   1.1323   1.1323   1.1426   1.1906   1.1906
  1.2224   1.2319   1.2319   1.2560   1.2560   1.2691   1.3559   1.3559
  1.4038   1.4456   1.4456   1.4618   1.4618   1.5776   1.6015   1.6015
  1.7222   1.7222   1.7670   1.7717   1.7717   1.8412   1.9458   1.9458
  1.9663   1.9663   1.9923   1.9959   1.9959   2.0150   2.0150   2.0999
  2.0999   2.1019   2.2365   2.2365   2.2574   2.2916   2.2916   2.3209
  2.4360   2.4360   2.5207   2.5207   2.5231   2.5561   2.5561   2.5963
  2.5963   2.8106   2.8851   2.8851   3.0505   3.0506   3.0538   3.0538
  3.0561   3.2352   3.2352   3.3003   3.3003   3.3594   3.4275   3.4275
  3.5485   3.6839   3.6839   3.6964   3.6964   3.8265   3.8959   3.8960
  4.0146   4.0385   4.0385   4.1843   4.2036   4.2036   4.2719   4.2719
  4.2783   4.2783   4.3014   4.3014   4.3428   4.3428   4.3640   4.4989
  4.4989   4.7682   4.8395   4.8872   4.8872   4.9391   4.9392   4.9461
  4.9462   4.9680   4.9680   5.0624   5.0903   5.0903   5.2225   5.2225
  5.2981   5.4205   5.4205   5.7748   5.7748   5.8386   5.8386   5.8487
  5.8487   5.8783   5.9640   5.9640   5.9652   5.9653   6.0477   6.0478
  6.1753   6.1753   6.3412   6.3675   6.3675   6.5899   6.5937   6.5937
  6.6837   6.7081   6.7081   7.1502   7.1502   7.2047   7.2047   7.4229
  7.4229   7.6518   7.7201   7.9620   7.9621   8.0263   8.0263   8.1380
  8.8122   8.8642   9.0709   9.0709   9.3352   9.3353   9.3724   9.3724
  9.6769   9.6771   9.7005   9.7005  10.3195  10.3537  10.4421  10.4421
 10.5630  10.5631  10.6132  10.6132  10.9344  10.9344  10.9545  10.9545
 10.9914  10.9914  11.1520  11.1520  11.2705  11.4709  11.6045  11.6045
 11.6589  11.6589  11.8903  11.8905  11.9493  11.9493  12.0785  12.0787
 12.1234  12.1234  12.2961  12.2961  12.3453  12.3454  12.4263  12.4264
 12.6841  12.6841  12.7715  13.0590  13.0590  13.0876  13.0877  13.1153
 13.1153  13.2218  13.2349  13.2349  13.7658  13.7658  13.9716  13.9716
 14.2429  14.4508  14.4508  14.7729  14.8964  14.8965  15.1568  15.1568
 15.6831  15.7816  15.7816  16.0619  16.2058  16.2059  16.5457  16.5457
 17.1671  17.4051  17.4052  17.5138  17.5138  17.8710  17.8711  18.0703
 18.0703  18.3018  18.5843  18.5843  19.2197  19.9457  19.9457  20.0665
 22.6087  24.8172  26.6468  26.6468  28.6440  32.4204  32.4204  33.5947
 33.5947  35.2613  42.1734  48.4001  48.4002  48.8251  48.8251  49.7539
 66.4468  66.4468  66.6000  66.6000  67.0733  75.6987 105.1082

 Beta MOs
 -- Occupied --
******** -14.1787 -10.1402  -9.4667  -7.2057  -7.1940  -7.1940  -0.9450
 -0.8890  -0.5677  -0.4240  -0.4240  -0.3736  -0.3226  -0.3226
 -- Virtual --
 -0.0570  -0.0332  -0.0332  -0.0070   0.0168   0.0180   0.0180   0.0393
  0.0480   0.0480   0.0648   0.0654   0.0654   0.0727   0.0727   0.0754
  0.0802   0.1010   0.1010   0.1178   0.1396   0.1396   0.1404   0.1404
  0.1591   0.1741   0.1741   0.1890   0.1890   0.1911   0.1911   0.1980
  0.2011   0.2011   0.2141   0.2252   0.2409   0.2409   0.2539   0.2539
  0.2733   0.2847   0.2918   0.2918   0.2972   0.2972   0.3172   0.3172
  0.3235   0.3235   0.3238   0.3315   0.3315   0.3507   0.3507   0.3547
  0.3547   0.3987   0.4021   0.4021   0.4218   0.4218   0.4411   0.4440
  0.4440   0.4580   0.4580   0.4739   0.4824   0.4824   0.4918   0.4918
  0.4991   0.4991   0.5046   0.5046   0.5050   0.5129   0.5354   0.5354
  0.5361   0.5361   0.5663   0.5663   0.5788   0.5788   0.5885   0.5910
  0.5910   0.5970   0.5970   0.6073   0.6313   0.6582   0.6582   0.6759
  0.6759   0.6780   0.6781   0.7102   0.7292   0.7292   0.7497   0.7497
  0.7638   0.7638   0.7800   0.7800   0.7860   0.7921   0.7921   0.7978
  0.8232   0.8232   0.8250   0.8250   0.8319   0.8319   0.8836   0.8836
  0.8957   0.8957   0.9012   0.9012   0.9147   0.9431   0.9569   0.9569
  0.9712   0.9712   0.9806   0.9806   0.9910   0.9910   0.9984   0.9984
  1.0214   1.0492   1.0492   1.0679   1.0769   1.1014   1.1014   1.1140
  1.1140   1.1272   1.1272   1.1323   1.1323   1.1426   1.1906   1.1906
  1.2224   1.2319   1.2319   1.2560   1.2560   1.2691   1.3559   1.3559
  1.4038   1.4456   1.4456   1.4618   1.4618   1.5776   1.6015   1.6015
  1.7222   1.7222   1.7670   1.7717   1.7717   1.8412   1.9458   1.9458
  1.9663   1.9663   1.9923   1.9959   1.9959   2.0150   2.0150   2.0999
  2.0999   2.1019   2.2365   2.2365   2.2574   2.2916   2.2916   2.3209
  2.4360   2.4360   2.5207   2.5207   2.5231   2.5561   2.5561   2.5963
  2.5963   2.8106   2.8851   2.8851   3.0505   3.0506   3.0538   3.0538
  3.0561   3.2352   3.2352   3.3003   3.3003   3.3594   3.4275   3.4275
  3.5485   3.6839   3.6839   3.6964   3.6964   3.8265   3.8959   3.8960
  4.0146   4.0385   4.0385   4.1843   4.2036   4.2036   4.2719   4.2719
  4.2783   4.2783   4.3014   4.3014   4.3428   4.3428   4.3640   4.4989
  4.4989   4.7682   4.8395   4.8872   4.8872   4.9391   4.9392   4.9461
  4.9462   4.9680   4.9680   5.0624   5.0903   5.0903   5.2225   5.2225
  5.2981   5.4205   5.4205   5.7748   5.7748   5.8386   5.8386   5.8487
  5.8487   5.8783   5.9640   5.9640   5.9652   5.9653   6.0477   6.0478
  6.1753   6.1753   6.3412   6.3675   6.3675   6.5899   6.5937   6.5937
  6.6837   6.7081   6.7081   7.1502   7.1502   7.2047   7.2047   7.4229
  7.4229   7.6518   7.7201   7.9620   7.9621   8.0263   8.0263   8.1380
  8.8122   8.8642   9.0709   9.0709   9.3352   9.3353   9.3724   9.3724
  9.6769   9.6771   9.7005   9.7005  10.3195  10.3537  10.4421  10.4421
 10.5630  10.5631  10.6132  10.6132  10.9344  10.9344  10.9545  10.9545
 10.9914  10.9914  11.1520  11.1520  11.2705  11.4709  11.6045  11.6045
 11.6589  11.6589  11.8903  11.8905  11.9493  11.9493  12.0785  12.0787
 12.1234  12.1234  12.2961  12.2961  12.3453  12.3454  12.4263  12.4264
 12.6841  12.6841  12.7715  13.0590  13.0590  13.0876  13.0877  13.1153
 13.1153  13.2218  13.2349  13.2349  13.7658  13.7658  13.9716  13.9716
 14.2429  14.4508  14.4508  14.7729  14.8964  14.8965  15.1568  15.1568
 15.6831  15.7816  15.7816  16.0619  16.2058  16.2059  16.5457  16.5457
 17.1671  17.4051  17.4052  17.5138  17.5138  17.8710  17.8711  18.0703
 18.0703  18.3018  18.5843  18.5843  19.2197  19.9457  19.9457  20.0665
 22.6087  24.8172  26.6468  26.6468  28.6440  32.4204  32.4204  33.5947
 33.5947  35.2613  42.1734  48.4001  48.4002  48.8251  48.8251  49.7539
 66.4468  66.4468  66.6000  66.6000  67.0733  75.6987 105.1082
 --------------------------------------------------------------

          Ground-State Mulliken Net Atomic Charges

     Atom                 Charge (a.u.)    Spin (a.u.)
  --------------------------------------------------------
      1 Cl                   -0.482048       0.000000
      2 C                     0.315414      -0.000000
      3 N                     0.166634      -0.000000
  --------------------------------------------------------
  Sum of atomic charges =    -0.000000
  Sum of spin   charges =    -0.000000

 -----------------------------------------------------------------
                    Cartesian Multipole Moments
 -----------------------------------------------------------------
    Charge (ESU x 10^10)
                -0.0000
    Dipole Moment (Debye)
         X      -0.0000      Y       0.0000      Z       2.9390
       Tot       2.9390
    Quadrupole Moments (Debye-Ang)
        XX     -22.7640     XY       0.0000     YY     -22.7640
        XZ      -0.0000     YZ       0.0000     ZZ     -22.8243
    Octopole Moments (Debye-Ang^2)
       XXX      -0.0000    XXY       0.0000    XYY      -0.0000
       YYY       0.0000    XXZ     -12.7608    XYZ      -0.0000
       YYZ     -12.7608    XZZ      -0.0000    YZZ       0.0000
       ZZZ     -25.3173
    Hexadecapole Moments (Debye-Ang^3)
      XXXX     -23.4302   XXXY       0.0000   XXYY      -7.8100
      XYYY       0.0000   YYYY     -23.4302   XXXZ      -0.0000
      XXYZ       0.0000   XYYZ      -0.0000   YYYZ       0.0000
      XXZZ     -47.8373   XYZZ       0.0000   YYZZ     -47.8373
      XZZZ      -0.0000   YZZZ       0.0000   ZZZZ    -239.9025
 -----------------------------------------------------------------
Archival summary:
1\1\n0032.mhg0\SP\ProcedureUnspecified\BasisUnspecified\l111\yhljason\SunAug2300:07:112020SunAug2300:07:112020\0\\#,ProcedureUnspecified,BasisUnspecified,\\0,1\Cl\C,1,1.629\N,2,1.1606,1,180\\\@

 Total job time:  26643.73s(wall), 209465.58s(cpu) 
 Sun Aug 23 00:07:11 2020

        *************************************************************
        *                                                           *
        *  Thank you very much for using Q-Chem.  Have a nice day.  *
        *                                                           *
        *************************************************************


