                  Welcome to Q-Chem
     A Quantum Leap Into The Future Of Chemistry


 Q-Chem 5.3 (devel), Q-Chem, Inc., Pleasanton, CA (2020)

 Yihan Shao,  Zhengting Gan,  E. Epifanovsky,  A. T. B. Gilbert,  M. Wormit,  
 J. Kussmann,  A. W. Lange,  A. Behn,  Jia Deng,  Xintian Feng,  D. Ghosh,  
 M. Goldey,  P. R. Horn,  L. D. Jacobson,  I. Kaliman,  T. Kus,  A. Landau,  
 Jie Liu,  E. I. Proynov,  R. M. Richard,  R. P. Steele,  E. J. Sundstrom,  
 H. L. Woodcock III,  P. M. Zimmerman,  D. Zuev,  B. Alam,  B. Albrecht,  
 E. Alguire,  S. A. Baeppler,  D. Barton,  Z. Benda,  Y. A. Bernard,  
 E. J. Berquist,  K. B. Bravaya,  H. Burton,  K. Carter-Fenk,  D. Casanova,  
 Chun-Min Chang,  Yunqing Chen,  A. Chien,  K. D. Closser,  M. P. Coons,  
 S. Coriani,  S. Dasgupta,  A. L. Dempwolff,  M. Diedenhofen,  Hainam Do,  
 R. G. Edgar,  Po-Tung Fang,  S. Faraji,  S. Fatehi,  Qingguo Feng,  
 J. Fosso-Tande,  J. Gayvert,  Qinghui Ge,  A. Ghysels,  G. Gidofalvi,  
 J. Gomes,  J. Gonthier,  A. Gunina,  D. Hait,  M. W. D. Hanson-Heine,  
 P. H. P. Harbach,  A. W. Hauser,  M. F. Herbst,  J. E. Herr,  
 E. G. Hohenstein,  Z. C. Holden,  Kerwin Hui,  B. C. Huynh,  T.-C. Jagau,  
 Hyunjun Ji,  B. Kaduk,  K. Khistyaev,  Jaehoon Kim,  P. Klunzinger,  K. Koh,  
 D. Kosenkov,  L. Koulias,  T. Kowalczyk,  C. M. Krauter,  A. Kunitsa,  
 Ka Un Lao,  A. Laurent,  K. V. Lawler,  Joonho Lee,  D. Lefrancois,  
 S. Lehtola,  D. S. Levine,  Yi-Pei Li,  You-Sheng Lin,  Fenglai Liu,  
 Kuan-Yu Liu,  E. Livshits,  M. Loipersberger,  A. Luenser,  P. Manohar,  
 E. Mansoor,  S. F. Manzer,  Shan-Ping Mao,  Yuezhi Mao,  N. Mardirossian,  
 A. V. Marenich,  T. Markovich,  L. A. Martinez-Martinez,  S. A. Maurer,  
 N. J. Mayhall,  S. C. McKenzie,  J.-M. Mewes,  P. Morgante,  A. F. Morrison,  
 J. W. Mullinax,  K. Nanda,  T. S. Nguyen-Beck,  R. Olivares-Amaya,  
 K. J. Oosterbaan,  J. A. Parkhill,  S. K. Paul,  F. Pavosevic,  Zheng Pei,  
 T. M. Perrine,  F. Plasser,  P. Pokhilko,  S. Prager,  A. Prociuk,  
 E. Ramos,  B. Rana,  D. R. Rehn,  F. Rob,  M. Scheurer,  M. Schneider,  
 N. Sergueev,  S. M. Sharada,  S. Sharma,  D. W. Small,  T. Stauch,  
 C. J. Stein,  T. Stein,  Yu-Chuan Su,  S. P. Veccham,  Zhen Tao,  
 A. J. W. Thom,  A. Tkatchenko,  T. Tsuchimochi,  N. M. Tubman,  L. Vogt,  
 M. L. Vidal,  O. Vydrov,  M. A. Watson,  J. Wenzel,  M. de Wergifosse,  
 T. A. Wesolowski,  A. White,  J. Witte,  A. Yamada,  Jun Yang,  K. Yao,  
 S. Yeganeh,  S. R. Yost,  Zhi-Qiang You,  A. Zech,  Igor Ying Zhang,  
 Xing Zhang,  Yan Zhao,  Ying Zhu,  B. R. Brooks,  G. K. L. Chan,  
 C. J. Cramer,  M. S. Gordon,  W. J. Hehre,  A. Klamt,  M. W. Schmidt,  
 C. D. Sherrill,  D. G. Truhlar,  A. Aspuru-Guzik,  R. Baer,  A. T. Bell,  
 N. A. Besley,  Jeng-Da Chai,  A. E. DePrince, III,  R. A. DiStasio Jr.,  
 A. Dreuw,  B. D. Dunietz,  T. R. Furlani,  Chao-Ping Hsu,  Yousung Jung,  
 Jing Kong,  D. S. Lambrecht,  WanZhen Liang,  C. Ochsenfeld,  
 V. A. Rassolov,  L. V. Slipchenko,  J. E. Subotnik,  T. Van Voorhis,  
 J. M. Herbert,  A. I. Krylov,  P. M. W. Gill,  M. Head-Gordon

 Contributors to earlier versions of Q-Chem not listed above: 
 R. D. Adamson,  B. Austin,  J. Baker,  G. J. O. Beran,  K. Brandhorst,  
 S. T. Brown,  E. F. C. Byrd,  A. K. Chakraborty,  C.-L. Cheng,  
 Siu Hung Chien,  D. M. Chipman,  D. L. Crittenden,  H. Dachsel,  
 R. J. Doerksen,  A. D. Dutoi,  L. Fusti-Molnar,  W. A. Goddard III,  
 A. Golubeva-Zadorozhnaya,  S. R. Gwaltney,  G. Hawkins,  A. Heyden,  
 S. Hirata,  G. Kedziora,  F. J. Keil,  C. Kelley,  Jihan Kim,  R. A. King,  
 R. Z. Khaliullin,  P. P. Korambath,  W. Kurlancheek,  A. M. Lee,  M. S. Lee,  
 S. V. Levchenko,  Ching Yeh Lin,  D. Liotard,  R. C. Lochan,  I. Lotan,  
 P. E. Maslen,  N. Nair,  D. P. O'Neill,  D. Neuhauser,  E. Neuscamman,  
 C. M. Oana,  R. Olson,  B. Peters,  R. Peverati,  P. A. Pieniazek,  
 Y. M. Rhee,  J. Ritchie,  M. A. Rohrdanz,  E. Rosta,  N. J. Russ,  
 H. F. Schaefer III,  N. E. Schultz,  N. Shenvi,  A. C. Simmonett,  A. Sodt,  
 D. Stuck,  K. S. Thanthiriwatte,  V. Vanovschi,  Tao Wang,  A. Warshel,  
 C. F. Williams,  Q. Wu,  X. Xu,  W. Zhang

 Please cite Q-Chem as follows:
 Y. Shao et al., Mol. Phys. 113, 184-215 (2015)
 DOI: 10.1080/00268976.2014.952696

 Q-Chem 5.3.0 for Intel X86 EM64T Linux

 Parts of Q-Chem use Armadillo 9.800.1 (Horizon Scraper).
 http://arma.sourceforge.net/

 Q-Chem begins on Sat Aug 22 16:23:43 2020  

n0047.mhg0
Host: 0

     Scratch files written to /local/scratch/users/yhljason/ClCN_B3LYP_aug-pc-4.inp20200822092044//
Processing $rem in /clusterfs/mhg/diptarka/qchem_transmom//config/preferences:
Processing $rem in /global/home/users/yhljason/.qchemrc:

Checking the input file for inconsistencies... 	...done.

--------------------------------------------------------------
User input:
--------------------------------------------------------------
$molecule
0 1
Cl1     0.0000  0.0000  1.6290
C2      0.0000  0.0000  0.0000
N3      0.0000  0.0000  -1.1606
$end

$rem
jobtype sp
method B3LYP
xc_grid 000099000590
basis aug-pc-4
max_scf_cycles 200
thresh 14
scf_convergence 8
scf_algorithm gdm
symmetry false
sym_ignore true
unrestricted true
gen_scfman true
internal_stability_iter 15
internal_stability_davidson_iter 200
mem_total 64000
mem_static 1500
n_frozen_core 0
$end


--------------------------------------------------------------
 ----------------------------------------------------------------
             Standard Nuclear Orientation (Angstroms)
    I     Atom           X                Y                Z
 ----------------------------------------------------------------
    1      Cl      0.0000000000     0.0000000000     1.6290000000
    2      C       0.0000000000     0.0000000000     0.0000000000
    3      N       0.0000000000     0.0000000000    -1.1606000000
 ----------------------------------------------------------------
 Nuclear Repulsion Energy =          74.85832132 hartrees
 There are       15 alpha and       15 beta electrons
 Requested basis set is aug-pc-4
 There are 97 shells and 431 basis functions

 Total QAlloc Memory Limit  64000 MB
 Mega-Array Size      1467 MB
 MEM_STATIC part      1500 MB

                       Distance Matrix (Angstroms)
             Cl(  1)   C (  2)
   C (  2)  1.629000
   N (  3)  2.789600  1.160600

 A cutoff of  1.0D-14 yielded   4660 shell pairs
 There are     93040 function pairs (    182581 Cartesian)
 Smallest overlap matrix eigenvalue = 3.68E-07
 Linear dependence detected in AO basis
 Tighter screening thresholds may be required for diffuse basis sets
 Use S2THRESH > 14 and THRESH = 14 in case of SCF convergence issues
 Number of orthogonalized atomic orbitals = 430
 Maximum deviation from orthogonality = 2.565E-10

 Scale SEOQF with 1.000000e-01/1.000000e-01/1.000000e-01

 Standard Electronic Orientation quadrupole field applied
 Nucleus-field energy     =    -0.0000000058 hartrees
 Guess from superposition of atomic densities
 Warning:  Energy on first SCF cycle will be non-variational
 SAD guess density has 30.000000 electrons

 -----------------------------------------------------------------------
  General SCF calculation program by
  Eric Jon Sundstrom, Paul Horn, Yuezhi Mao, Dmitri Zuev, Alec White,
  David Stuck, Shaama M.S., Shane Yost, Joonho Lee, David Small,
  Daniel Levine, Susi Lehtola, Hugh Burton, Evgeny Epifanovsky,
  Bang C. Huynh
 -----------------------------------------------------------------------
 Exchange:     0.2000 Hartree-Fock + 0.0800 Slater + 0.7200 B88
 Correlation:  0.1900 VWN1RPA + 0.8100 LYP
 Using Euler-Maclaurin-Lebedev (99,590) quadrature formula
Running Object-Oriented UKS (UHF)
performing a single roothaan step with Fock from read density so that orbitals are available to all algorithms
energy of the guess density (C=0) -553.548888660125
We will preform up to 15 macro iterations over saddle points until a stable solution is found
Energy prior to optimization (guess energy) = -553.007239301830
Begin Timing: Total SCF Calculation
Begin Timing: SCF Single Stationary Point Calculation
begin iterations for algorithm: GDM          
the SCF tolerance is set to 1.00e-08
    1    -553.0072393018      2.50e-01     00000  Descent step
    2    -553.0517579200      2.04e-01     00000  Normal BFGS step
    3    -553.0964139722      6.12e-02     00000  Normal BFGS step
    4    -553.0981562075      3.65e-02     00000  Normal BFGS step
    5    -553.1030879630      3.91e-03     00000  Normal BFGS step
    6    -553.1031430413      6.70e-04     00000  Normal BFGS step
    7    -553.1031602444      2.06e-04     00000  Normal BFGS step
    8    -553.1031603744      4.37e-05     00000  Normal BFGS step
    9    -553.1031603846      1.18e-05     00000  Normal BFGS step
   10    -553.1031603857      4.70e-06     00000  Normal BFGS step
   11    -553.1031603858      2.72e-07     00000  Normal BFGS step
   12    -553.1031603858      3.34e-07     00000  Normal BFGS step
   13    -553.1031603858      3.14e-07     00000  Normal BFGS step
   14    -553.1031603858      3.35e-08     00000  Normal BFGS step
   15    -553.1031603858      3.81e-08     00000  Normal BFGS step
   16    -553.1031603858      2.53e-09     00000 Convergence criterion met
Timing for Single Stationary Point: 3459.00s (wall), 27261.73s (cpu)
Begin Timing: Stability
===================================================
Beginning Test for Internal Stability
===================================================
generating davidson guess vectors based on koopmans excitations
 Warning: Hessian-vector products not implemented
 Finite difference Hessian-vector products will be used.
computing hessian-vector products by finite difference
    1      6.71e-01     00000 Davidson Iteration
computing hessian-vector products by finite difference
    2      2.28e-01     00000 Davidson Iteration
computing hessian-vector products by finite difference
    3      2.94e-01     00000 Davidson Iteration
computing hessian-vector products by finite difference
    4      1.01e-01     00000 Davidson Iteration
computing hessian-vector products by finite difference
    5      6.71e-02     00000 Davidson Iteration
computing hessian-vector products by finite difference
    6      2.33e-02     00000 Davidson Iteration
computing hessian-vector products by finite difference
    7      3.20e-02     00000 Davidson Iteration
computing hessian-vector products by finite difference
    8      1.02e-02     00000 Davidson Iteration
computing hessian-vector products by finite difference
    9      1.02e-02     00000 Davidson Iteration
computing hessian-vector products by finite difference
   10      4.89e-03     00000 Davidson Iteration
computing hessian-vector products by finite difference
   11      3.22e-03     00000 Davidson Iteration
computing hessian-vector products by finite difference
   12      1.78e-03     00000 Davidson Iteration
computing hessian-vector products by finite difference
   13      1.79e-03     00000 Davidson Iteration
computing hessian-vector products by finite difference
   14      7.96e-04     00000 Davidson Iteration
computing hessian-vector products by finite difference
   15      4.64e-04     00000 Davidson Iteration
computing hessian-vector products by finite difference
   16      5.26e-04     00000 Davidson Iteration
computing hessian-vector products by finite difference
   17      5.19e-04     00000 Davidson Iteration
computing hessian-vector products by finite difference
   18      5.26e-04     00000 Davidson Iteration
computing hessian-vector products by finite difference
   19      1.61e-04     00000 Davidson Iteration
computing hessian-vector products by finite difference
   20      6.49e-05     00000 Davidson Iteration
computing hessian-vector products by finite difference
   21      1.67e-04     00000 Davidson Iteration
computing hessian-vector products by finite difference
   22      7.23e-05     00000 Davidson Converged
converged_eigenvalues
   0.3716
   0.2908
Threshold for negative eigenvalues: -1.0e-05
solution was a local minimum (stable)
===================================================
End Test for Internal Stability
===================================================
Timing for Internal Stability: 23118.00s (wall), 181841.46s (cpu)
Our SCF solution is stable!
Timing for Total SCF: 26577.00s (wall), 209103.36s (cpu)
 Total energy in the final basis set =     -553.1031603858
<S^2> =          0.000000000
    ==================================================
              The end of Object-Oriented SCFman       
    ==================================================

 --------------------------------------------------------------

                    Orbital Energies (a.u.)
 --------------------------------------------------------------

 Alpha MOs
 -- Occupied --
******** -14.3490 -10.2801  -9.5466  -7.3086  -7.2988  -7.2988  -0.9706
 -0.9122  -0.5874  -0.4490  -0.4490  -0.3988  -0.3432  -0.3432
 -- Virtual --
 -0.0396  -0.0086  -0.0086  -0.0008   0.0132   0.0143   0.0143   0.0355
  0.0423   0.0423   0.0617   0.0638   0.0638   0.0714   0.0729   0.0729
  0.0787   0.0969   0.0969   0.1180   0.1376   0.1376   0.1385   0.1385
  0.1577   0.1715   0.1715   0.1867   0.1867   0.1910   0.1910   0.1942
  0.1989   0.1989   0.2089   0.2247   0.2437   0.2437   0.2552   0.2552
  0.2680   0.2847   0.2891   0.2891   0.3001   0.3001   0.3223   0.3244
  0.3244   0.3256   0.3256   0.3327   0.3327   0.3470   0.3470   0.3598
  0.3598   0.4013   0.4045   0.4045   0.4271   0.4271   0.4388   0.4420
  0.4420   0.4580   0.4580   0.4775   0.4894   0.4894   0.4935   0.4935
  0.5010   0.5010   0.5077   0.5110   0.5130   0.5130   0.5372   0.5372
  0.5461   0.5461   0.5653   0.5653   0.5817   0.5817   0.5940   0.5993
  0.6018   0.6018   0.6103   0.6103   0.6355   0.6629   0.6629   0.6842
  0.6842   0.6884   0.6884   0.7147   0.7327   0.7327   0.7564   0.7564
  0.7663   0.7663   0.7947   0.7957   0.7957   0.8066   0.8066   0.8125
  0.8268   0.8268   0.8400   0.8400   0.8469   0.8469   0.8985   0.8985
  0.9012   0.9012   0.9159   0.9159   0.9217   0.9429   0.9612   0.9612
  0.9889   0.9889   0.9919   0.9919   0.9994   0.9994   1.0079   1.0079
  1.0348   1.0624   1.0669   1.0669   1.0843   1.1060   1.1060   1.1124
  1.1124   1.1338   1.1338   1.1344   1.1344   1.1399   1.2050   1.2050
  1.2356   1.2356   1.2370   1.2547   1.2638   1.2638   1.3663   1.3663
  1.4009   1.4009   1.4103   1.4621   1.4621   1.5606   1.5820   1.5820
  1.6996   1.6996   1.7490   1.7506   1.7506   1.8292   1.9126   1.9126
  1.9139   1.9139   1.9498   1.9498   1.9681   1.9788   1.9788   2.0701
  2.0775   2.0775   2.2071   2.2218   2.2218   2.2471   2.2471   2.2593
  2.3609   2.3609   2.4367   2.4367   2.4660   2.4660   2.5007   2.5575
  2.5575   2.7617   2.7860   2.7860   2.9124   2.9124   2.9267   2.9267
  2.9463   3.1596   3.1596   3.1861   3.1861   3.2575   3.3192   3.3192
  3.4545   3.5485   3.5485   3.5787   3.5787   3.6813   3.7650   3.7650
  3.8840   3.9416   3.9416   4.0700   4.0792   4.0792   4.1213   4.1213
  4.1543   4.1543   4.1620   4.1620   4.2143   4.2656   4.2656   4.3916
  4.3916   4.6351   4.6875   4.6910   4.6910   4.7553   4.7553   4.7894
  4.7894   4.8276   4.8276   4.9197   4.9462   4.9462   5.0625   5.0625
  5.1288   5.1288   5.1558   5.5095   5.5095   5.5454   5.5454   5.6495
  5.6524   5.6524   5.7123   5.7123   5.7128   5.7128   5.9390   5.9390
  6.0039   6.0039   6.0765   6.0765   6.1261   6.4064   6.4064   6.4082
  6.4415   6.4415   6.4716   6.8479   6.8479   6.9478   6.9478   7.1675
  7.1675   7.3481   7.5068   7.6063   7.6063   7.7424   7.7424   7.9048
  8.5062   8.6084   8.7419   8.7419   9.1463   9.1463   9.1701   9.1701
  9.4394   9.4394   9.4526   9.4526  10.0508  10.1162  10.1614  10.1614
 10.2962  10.2962  10.4092  10.4092  10.5663  10.5663  10.5680  10.5680
 10.6099  10.6099  10.8039  10.8039  10.9167  11.0801  11.2552  11.2552
 11.3138  11.3138  11.5118  11.5118  11.6495  11.6495  11.6555  11.6555
 11.7698  11.7698  11.8937  11.8937  11.9587  11.9587  11.9862  11.9862
 12.3063  12.3063  12.4993  12.7482  12.7482  12.8257  12.8257  12.8670
 12.9221  12.9221  13.0275  13.0275  13.1929  13.1929  13.6788  13.6788
 13.9672  14.0628  14.0628  14.3558  14.3948  14.3948  14.6648  14.6648
 15.2046  15.2917  15.2917  15.5841  15.5841  15.6863  16.0385  16.0385
 16.7821  17.0646  17.0646  17.1263  17.1263  17.8233  17.8233  17.8946
 17.8946  17.9524  18.3011  18.3011  19.0143  19.6813  19.6813  19.7417
 22.3537  24.3251  26.5585  26.5585  28.4833  32.0752  32.0752  33.1870
 33.1870  34.8306  41.9904  47.9427  47.9427  48.3366  48.3366  49.2569
 66.1430  66.1430  66.2932  66.2932  66.7606  76.0472 105.4971

 Beta MOs
 -- Occupied --
******** -14.3490 -10.2801  -9.5466  -7.3086  -7.2988  -7.2988  -0.9706
 -0.9122  -0.5874  -0.4490  -0.4490  -0.3988  -0.3432  -0.3432
 -- Virtual --
 -0.0396  -0.0086  -0.0086  -0.0008   0.0132   0.0143   0.0143   0.0355
  0.0423   0.0423   0.0617   0.0638   0.0638   0.0714   0.0729   0.0729
  0.0787   0.0969   0.0969   0.1180   0.1376   0.1376   0.1385   0.1385
  0.1577   0.1715   0.1715   0.1867   0.1867   0.1910   0.1910   0.1942
  0.1989   0.1989   0.2089   0.2247   0.2437   0.2437   0.2552   0.2552
  0.2680   0.2847   0.2891   0.2891   0.3001   0.3001   0.3223   0.3244
  0.3244   0.3256   0.3256   0.3327   0.3327   0.3470   0.3470   0.3598
  0.3598   0.4013   0.4045   0.4045   0.4271   0.4271   0.4388   0.4420
  0.4420   0.4580   0.4580   0.4775   0.4894   0.4894   0.4935   0.4935
  0.5010   0.5010   0.5077   0.5110   0.5130   0.5130   0.5372   0.5372
  0.5461   0.5461   0.5653   0.5653   0.5817   0.5817   0.5940   0.5993
  0.6018   0.6018   0.6103   0.6103   0.6355   0.6629   0.6629   0.6842
  0.6842   0.6884   0.6884   0.7147   0.7327   0.7327   0.7564   0.7564
  0.7663   0.7663   0.7947   0.7957   0.7957   0.8066   0.8066   0.8125
  0.8268   0.8268   0.8400   0.8400   0.8469   0.8469   0.8985   0.8985
  0.9012   0.9012   0.9159   0.9159   0.9217   0.9429   0.9612   0.9612
  0.9889   0.9889   0.9919   0.9919   0.9994   0.9994   1.0079   1.0079
  1.0348   1.0624   1.0669   1.0669   1.0843   1.1060   1.1060   1.1124
  1.1124   1.1338   1.1338   1.1344   1.1344   1.1399   1.2050   1.2050
  1.2356   1.2356   1.2370   1.2547   1.2638   1.2638   1.3663   1.3663
  1.4009   1.4009   1.4103   1.4621   1.4621   1.5606   1.5820   1.5820
  1.6996   1.6996   1.7490   1.7506   1.7506   1.8292   1.9126   1.9126
  1.9139   1.9139   1.9498   1.9498   1.9681   1.9788   1.9788   2.0701
  2.0775   2.0775   2.2071   2.2218   2.2218   2.2471   2.2471   2.2593
  2.3609   2.3609   2.4367   2.4367   2.4660   2.4660   2.5007   2.5575
  2.5575   2.7617   2.7860   2.7860   2.9124   2.9124   2.9267   2.9267
  2.9463   3.1596   3.1596   3.1861   3.1861   3.2575   3.3192   3.3192
  3.4545   3.5485   3.5485   3.5787   3.5787   3.6813   3.7650   3.7650
  3.8840   3.9416   3.9416   4.0700   4.0792   4.0792   4.1213   4.1213
  4.1543   4.1543   4.1620   4.1620   4.2143   4.2656   4.2656   4.3916
  4.3916   4.6351   4.6875   4.6910   4.6910   4.7553   4.7553   4.7894
  4.7894   4.8276   4.8276   4.9197   4.9462   4.9462   5.0625   5.0625
  5.1288   5.1288   5.1558   5.5095   5.5095   5.5454   5.5454   5.6495
  5.6524   5.6524   5.7123   5.7123   5.7128   5.7128   5.9390   5.9390
  6.0039   6.0039   6.0765   6.0765   6.1261   6.4064   6.4064   6.4082
  6.4415   6.4415   6.4716   6.8479   6.8479   6.9478   6.9478   7.1675
  7.1675   7.3481   7.5068   7.6063   7.6063   7.7424   7.7424   7.9048
  8.5062   8.6084   8.7419   8.7419   9.1463   9.1463   9.1701   9.1701
  9.4394   9.4394   9.4526   9.4526  10.0508  10.1162  10.1614  10.1614
 10.2962  10.2962  10.4092  10.4092  10.5663  10.5663  10.5680  10.5680
 10.6099  10.6099  10.8039  10.8039  10.9167  11.0801  11.2552  11.2552
 11.3138  11.3138  11.5118  11.5118  11.6495  11.6495  11.6555  11.6555
 11.7698  11.7698  11.8937  11.8937  11.9587  11.9587  11.9862  11.9862
 12.3063  12.3063  12.4993  12.7482  12.7482  12.8257  12.8257  12.8670
 12.9221  12.9221  13.0275  13.0275  13.1929  13.1929  13.6788  13.6788
 13.9672  14.0628  14.0628  14.3558  14.3948  14.3948  14.6648  14.6648
 15.2046  15.2917  15.2917  15.5841  15.5841  15.6863  16.0385  16.0385
 16.7821  17.0646  17.0646  17.1263  17.1263  17.8233  17.8233  17.8946
 17.8946  17.9524  18.3011  18.3011  19.0143  19.6813  19.6813  19.7417
 22.3537  24.3251  26.5585  26.5585  28.4833  32.0752  32.0752  33.1870
 33.1870  34.8306  41.9904  47.9427  47.9427  48.3366  48.3366  49.2569
 66.1430  66.1430  66.2932  66.2932  66.7606  76.0472 105.4971
 --------------------------------------------------------------

          Ground-State Mulliken Net Atomic Charges

     Atom                 Charge (a.u.)    Spin (a.u.)
  --------------------------------------------------------
      1 Cl                   -0.300147       0.000000
      2 C                     0.351306      -0.000000
      3 N                    -0.051160       0.000000
  --------------------------------------------------------
  Sum of atomic charges =     0.000000
  Sum of spin   charges =     0.000000

 -----------------------------------------------------------------
                    Cartesian Multipole Moments
 -----------------------------------------------------------------
    Charge (ESU x 10^10)
                -0.0000
    Dipole Moment (Debye)
         X       0.0000      Y       0.0000      Z       3.0059
       Tot       3.0059
    Quadrupole Moments (Debye-Ang)
        XX     -23.0767     XY      -0.0000     YY     -23.0767
        XZ       0.0000     YZ      -0.0000     ZZ     -23.2102
    Octopole Moments (Debye-Ang^2)
       XXX       0.0000    XXY       0.0000    XYY       0.0000
       YYY       0.0000    XXZ     -12.8939    XYZ      -0.0000
       YYZ     -12.8939    XZZ       0.0000    YZZ       0.0000
       ZZZ     -25.3882
    Hexadecapole Moments (Debye-Ang^3)
      XXXX     -24.5956   XXXY      -0.0000   XXYY      -8.1985
      XYYY      -0.0000   YYYY     -24.5956   XXXZ       0.0000
      XXYZ      -0.0000   XYYZ       0.0000   YYYZ      -0.0000
      XXZZ     -48.9228   XYZZ       0.0000   YYZZ     -48.9228
      XZZZ       0.0000   YZZZ      -0.0000   ZZZZ    -244.6977
 -----------------------------------------------------------------
Archival summary:
1\1\n0047.mhg0\SP\ProcedureUnspecified\BasisUnspecified\l111\yhljason\SatAug2223:54:022020SatAug2223:54:022020\0\\#,ProcedureUnspecified,BasisUnspecified,\\0,1\Cl\C,1,1.629\N,2,1.1606,1,180\\\@

 Total job time:  27019.31s(wall), 212578.06s(cpu) 
 Sat Aug 22 23:54:02 2020

        *************************************************************
        *                                                           *
        *  Thank you very much for using Q-Chem.  Have a nice day.  *
        *                                                           *
        *************************************************************


