                  Welcome to Q-Chem
     A Quantum Leap Into The Future Of Chemistry


 Q-Chem 5.3 (devel), Q-Chem, Inc., Pleasanton, CA (2020)

 Yihan Shao,  Zhengting Gan,  E. Epifanovsky,  A. T. B. Gilbert,  M. Wormit,  
 J. Kussmann,  A. W. Lange,  A. Behn,  Jia Deng,  Xintian Feng,  D. Ghosh,  
 M. Goldey,  P. R. Horn,  L. D. Jacobson,  I. Kaliman,  T. Kus,  A. Landau,  
 Jie Liu,  E. I. Proynov,  R. M. Richard,  R. P. Steele,  E. J. Sundstrom,  
 H. L. Woodcock III,  P. M. Zimmerman,  D. Zuev,  B. Alam,  B. Albrecht,  
 E. Alguire,  S. A. Baeppler,  D. Barton,  Z. Benda,  Y. A. Bernard,  
 E. J. Berquist,  K. B. Bravaya,  H. Burton,  K. Carter-Fenk,  D. Casanova,  
 Chun-Min Chang,  Yunqing Chen,  A. Chien,  K. D. Closser,  M. P. Coons,  
 S. Coriani,  S. Dasgupta,  A. L. Dempwolff,  M. Diedenhofen,  Hainam Do,  
 R. G. Edgar,  Po-Tung Fang,  S. Faraji,  S. Fatehi,  Qingguo Feng,  
 J. Fosso-Tande,  J. Gayvert,  Qinghui Ge,  A. Ghysels,  G. Gidofalvi,  
 J. Gomes,  J. Gonthier,  A. Gunina,  D. Hait,  M. W. D. Hanson-Heine,  
 P. H. P. Harbach,  A. W. Hauser,  M. F. Herbst,  J. E. Herr,  
 E. G. Hohenstein,  Z. C. Holden,  Kerwin Hui,  B. C. Huynh,  T.-C. Jagau,  
 Hyunjun Ji,  B. Kaduk,  K. Khistyaev,  Jaehoon Kim,  P. Klunzinger,  K. Koh,  
 D. Kosenkov,  L. Koulias,  T. Kowalczyk,  C. M. Krauter,  A. Kunitsa,  
 Ka Un Lao,  A. Laurent,  K. V. Lawler,  Joonho Lee,  D. Lefrancois,  
 S. Lehtola,  D. S. Levine,  Yi-Pei Li,  You-Sheng Lin,  Fenglai Liu,  
 Kuan-Yu Liu,  E. Livshits,  M. Loipersberger,  A. Luenser,  P. Manohar,  
 E. Mansoor,  S. F. Manzer,  Shan-Ping Mao,  Yuezhi Mao,  N. Mardirossian,  
 A. V. Marenich,  T. Markovich,  L. A. Martinez-Martinez,  S. A. Maurer,  
 N. J. Mayhall,  S. C. McKenzie,  J.-M. Mewes,  P. Morgante,  A. F. Morrison,  
 J. W. Mullinax,  K. Nanda,  T. S. Nguyen-Beck,  R. Olivares-Amaya,  
 K. J. Oosterbaan,  J. A. Parkhill,  S. K. Paul,  F. Pavosevic,  Zheng Pei,  
 T. M. Perrine,  F. Plasser,  P. Pokhilko,  S. Prager,  A. Prociuk,  
 E. Ramos,  B. Rana,  D. R. Rehn,  F. Rob,  M. Scheurer,  M. Schneider,  
 N. Sergueev,  S. M. Sharada,  S. Sharma,  D. W. Small,  T. Stauch,  
 C. J. Stein,  T. Stein,  Yu-Chuan Su,  S. P. Veccham,  Zhen Tao,  
 A. J. W. Thom,  A. Tkatchenko,  T. Tsuchimochi,  N. M. Tubman,  L. Vogt,  
 M. L. Vidal,  O. Vydrov,  M. A. Watson,  J. Wenzel,  M. de Wergifosse,  
 T. A. Wesolowski,  A. White,  J. Witte,  A. Yamada,  Jun Yang,  K. Yao,  
 S. Yeganeh,  S. R. Yost,  Zhi-Qiang You,  A. Zech,  Igor Ying Zhang,  
 Xing Zhang,  Yan Zhao,  Ying Zhu,  B. R. Brooks,  G. K. L. Chan,  
 C. J. Cramer,  M. S. Gordon,  W. J. Hehre,  A. Klamt,  M. W. Schmidt,  
 C. D. Sherrill,  D. G. Truhlar,  A. Aspuru-Guzik,  R. Baer,  A. T. Bell,  
 N. A. Besley,  Jeng-Da Chai,  A. E. DePrince, III,  R. A. DiStasio Jr.,  
 A. Dreuw,  B. D. Dunietz,  T. R. Furlani,  Chao-Ping Hsu,  Yousung Jung,  
 Jing Kong,  D. S. Lambrecht,  WanZhen Liang,  C. Ochsenfeld,  
 V. A. Rassolov,  L. V. Slipchenko,  J. E. Subotnik,  T. Van Voorhis,  
 J. M. Herbert,  A. I. Krylov,  P. M. W. Gill,  M. Head-Gordon

 Contributors to earlier versions of Q-Chem not listed above: 
 R. D. Adamson,  B. Austin,  J. Baker,  G. J. O. Beran,  K. Brandhorst,  
 S. T. Brown,  E. F. C. Byrd,  A. K. Chakraborty,  C.-L. Cheng,  
 Siu Hung Chien,  D. M. Chipman,  D. L. Crittenden,  H. Dachsel,  
 R. J. Doerksen,  A. D. Dutoi,  L. Fusti-Molnar,  W. A. Goddard III,  
 A. Golubeva-Zadorozhnaya,  S. R. Gwaltney,  G. Hawkins,  A. Heyden,  
 S. Hirata,  G. Kedziora,  F. J. Keil,  C. Kelley,  Jihan Kim,  R. A. King,  
 R. Z. Khaliullin,  P. P. Korambath,  W. Kurlancheek,  A. M. Lee,  M. S. Lee,  
 S. V. Levchenko,  Ching Yeh Lin,  D. Liotard,  R. C. Lochan,  I. Lotan,  
 P. E. Maslen,  N. Nair,  D. P. O'Neill,  D. Neuhauser,  E. Neuscamman,  
 C. M. Oana,  R. Olson,  B. Peters,  R. Peverati,  P. A. Pieniazek,  
 Y. M. Rhee,  J. Ritchie,  M. A. Rohrdanz,  E. Rosta,  N. J. Russ,  
 H. F. Schaefer III,  N. E. Schultz,  N. Shenvi,  A. C. Simmonett,  A. Sodt,  
 D. Stuck,  K. S. Thanthiriwatte,  V. Vanovschi,  Tao Wang,  A. Warshel,  
 C. F. Williams,  Q. Wu,  X. Xu,  W. Zhang

 Please cite Q-Chem as follows:
 Y. Shao et al., Mol. Phys. 113, 184-215 (2015)
 DOI: 10.1080/00268976.2014.952696

 Q-Chem 5.3.0 for Intel X86 EM64T Linux

 Parts of Q-Chem use Armadillo 9.800.1 (Horizon Scraper).
 http://arma.sourceforge.net/

 Q-Chem begins on Sat Aug 22 15:17:30 2020  

n0096.mhg0
Host: 0

     Scratch files written to /local/scratch/users/yhljason/CS_BPBE_aug-pc-4.inp20200822092040//
Processing $rem in /clusterfs/mhg/diptarka/qchem_transmom//config/preferences:
Processing $rem in /global/home/users/yhljason/.qchemrc:

Checking the input file for inconsistencies... 	...done.

--------------------------------------------------------------
User input:
--------------------------------------------------------------
$molecule
0 1
C1      0.0000  0.0000  0.0000
S2      0.0000  0.0000  1.5349
$end

$rem
jobtype sp
method BPBE
xc_grid 000099000590
basis aug-pc-4
max_scf_cycles 200
thresh 14
scf_convergence 8
scf_algorithm gdm
symmetry false
sym_ignore true
unrestricted true
gen_scfman true
internal_stability_iter 15
internal_stability_davidson_iter 200
mem_total 64000
mem_static 1500
n_frozen_core 0
$end


--------------------------------------------------------------
 ----------------------------------------------------------------
             Standard Nuclear Orientation (Angstroms)
    I     Atom           X                Y                Z
 ----------------------------------------------------------------
    1      C       0.0000000000     0.0000000000     0.0000000000
    2      S       0.0000000000     0.0000000000     1.5349000000
 ----------------------------------------------------------------
 Nuclear Repulsion Energy =          33.09727815 hartrees
 There are       11 alpha and       11 beta electrons
 Requested basis set is aug-pc-4
 There are 64 shells and 286 basis functions

 Total QAlloc Memory Limit  64000 MB
 Mega-Array Size      1467 MB
 MEM_STATIC part      1500 MB

                       Distance Matrix (Angstroms)
             C (  1)
   S (  2)  1.534900

 A cutoff of  1.0D-14 yielded   2077 shell pairs
 There are     41799 function pairs (     82242 Cartesian)
 Smallest overlap matrix eigenvalue = 3.59E-06

 Scale SEOQF with 1.000000e-01/1.000000e-01/1.000000e-01

 Standard Electronic Orientation quadrupole field applied
 Nucleus-field energy     =    -0.0000000040 hartrees
 Guess from superposition of atomic densities
 Warning:  Energy on first SCF cycle will be non-variational
 SAD guess density has 22.000000 electrons

 -----------------------------------------------------------------------
  General SCF calculation program by
  Eric Jon Sundstrom, Paul Horn, Yuezhi Mao, Dmitri Zuev, Alec White,
  David Stuck, Shaama M.S., Shane Yost, Joonho Lee, David Small,
  Daniel Levine, Susi Lehtola, Hugh Burton, Evgeny Epifanovsky,
  Bang C. Huynh
 -----------------------------------------------------------------------
 Exchange:  B88      Correlation:  PBE
 Using Euler-Maclaurin-Lebedev (99,590) quadrature formula
Running Object-Oriented UKS (UHF)
performing a single roothaan step with Fock from read density so that orbitals are available to all algorithms
energy of the guess density (C=0) -436.354958783988
We will preform up to 15 macro iterations over saddle points until a stable solution is found
Energy prior to optimization (guess energy) = -436.111563006110
Begin Timing: Total SCF Calculation
Begin Timing: SCF Single Stationary Point Calculation
begin iterations for algorithm: GDM          
the SCF tolerance is set to 1.00e-08
    1    -436.1115630061      3.60e-01     00000  Descent step
    2    -436.1183612073      4.95e-01     00000  Normal BFGS step
    3    -436.1924924868      2.02e-02     00000  Normal BFGS step
    4    -436.1971781436      1.26e-02     00000  Normal BFGS step
    5    -436.1977871199      1.29e-03     00000  Normal BFGS step
    6    -436.1978035008      3.83e-04     00000  Normal BFGS step
    7    -436.1978043144      1.68e-04     00000  Normal BFGS step
    8    -436.1978046390      6.67e-05     00000  Normal BFGS step
    9    -436.1978046519      1.28e-05     00000  Normal BFGS step
   10    -436.1978046527      8.95e-07     00000  Normal BFGS step
   11    -436.1978046527      7.61e-07     00000  Normal BFGS step
   12    -436.1978046527      1.30e-06     00000  Normal BFGS step
   13    -436.1978046527      2.73e-08     00000  Normal BFGS step
   14    -436.1978046527      9.41e-09     00000 Convergence criterion met
Timing for Single Stationary Point: 653.00s (wall), 5133.18s (cpu)
Begin Timing: Stability
===================================================
Beginning Test for Internal Stability
===================================================
generating davidson guess vectors based on koopmans excitations
 Warning: Hessian-vector products not implemented
 Finite difference Hessian-vector products will be used.
computing hessian-vector products by finite difference
    1      7.04e-01     00000 Davidson Iteration
computing hessian-vector products by finite difference
    2      5.02e-01     00000 Davidson Iteration
computing hessian-vector products by finite difference
    3      8.86e-02     00000 Davidson Iteration
computing hessian-vector products by finite difference
    4      6.09e-02     00000 Davidson Iteration
computing hessian-vector products by finite difference
    5      1.53e-02     00000 Davidson Iteration
computing hessian-vector products by finite difference
    6      4.63e-03     00000 Davidson Iteration
computing hessian-vector products by finite difference
    7      2.91e-04     00000 Davidson Iteration
computing hessian-vector products by finite difference
    8      1.77e-04     00000 Davidson Iteration
computing hessian-vector products by finite difference
    9      4.56e-05     00000 Davidson Converged
converged_eigenvalues
   0.1626
   0.1626
Threshold for negative eigenvalues: -1.0e-05
solution was a local minimum (stable)
===================================================
End Test for Internal Stability
===================================================
Timing for Internal Stability: 2089.00s (wall), 16408.38s (cpu)
Our SCF solution is stable!
Timing for Total SCF: 2742.00s (wall), 21541.61s (cpu)
 Total energy in the final basis set =     -436.1978046527
<S^2> =          0.000000000
    ==================================================
              The end of Object-Oriented SCFman       
    ==================================================

 --------------------------------------------------------------

                    Orbital Energies (a.u.)
 --------------------------------------------------------------

 Alpha MOs
 -- Occupied --
-88.1130  -9.9905  -7.7278  -5.7471  -5.7471  -5.7453  -0.7667  -0.4786
 -0.3271  -0.3271  -0.2710
 -- Virtual --
 -0.1244  -0.1244  -0.0062   0.0042   0.0151   0.0151   0.0278   0.0381
  0.0381   0.0587   0.0711   0.0770   0.0770   0.0903   0.0903   0.0953
  0.1175   0.1175   0.1269   0.1306   0.1306   0.1438   0.1438   0.1583
  0.2010   0.2096   0.2096   0.2148   0.2148   0.2200   0.2200   0.2479
  0.2479   0.2571   0.2579   0.2579   0.2616   0.2655   0.2655   0.2739
  0.2739   0.3019   0.3019   0.3099   0.3633   0.3633   0.3680   0.3692
  0.3692   0.3752   0.4128   0.4128   0.4199   0.4199   0.4504   0.4566
  0.4566   0.4688   0.4688   0.4783   0.4783   0.4960   0.4960   0.5074
  0.5074   0.5333   0.5333   0.5337   0.5337   0.5338   0.5626   0.5626
  0.5796   0.5796   0.5935   0.6189   0.6189   0.6208   0.6242   0.6242
  0.6320   0.6320   0.6679   0.6679   0.6718   0.6781   0.6781   0.6926
  0.6926   0.7030   0.7030   0.7396   0.7396   0.7421   0.7868   0.7868
  0.7925   0.8195   0.8195   0.8759   0.8840   0.8840   0.9727   0.9727
  0.9760   0.9760   0.9969   1.0304   1.0304   1.1053   1.1053   1.1187
  1.1992   1.2475   1.2475   1.2584   1.2584   1.3426   1.3426   1.3782
  1.4220   1.5500   1.5500   1.5550   1.5550   1.6097   1.7232   1.7232
  1.9399   1.9399   2.0180   2.0180   2.1057   2.1141   2.1141   2.1529
  2.1529   2.2486   2.3547   2.3547   2.4646   2.4691   2.4691   2.5209
  2.5209   2.5478   2.5478   2.6741   2.8190   2.8190   2.8500   3.1757
  3.1757   3.2004   3.2406   3.2406   3.2524   3.2524   3.3826   3.4731
  3.4731   3.6003   3.8076   3.8076   3.9657   3.9657   4.0126   4.0126
  4.0141   4.0141   4.1690   4.1690   4.3599   4.3599   4.4742   4.5946
  4.5946   4.7648   4.7678   4.7678   4.7799   4.7799   5.1197   5.1197
  5.1447   5.1447   5.2864   5.4344   5.4344   5.4886   5.4886   5.5487
  5.5487   5.7246   5.7539   5.8137   5.8137   6.0309   6.2982   6.2982
  6.3677   6.3677   6.7053   6.7053   7.4666   7.7119   8.1394   8.1394
  8.1908   8.1908   8.4087   8.4087   8.5613   8.5613   9.0999  10.2034
 10.2034  10.2427  10.2427  10.4651  10.4651  10.7434  10.7434  10.7473
 10.7473  10.8247  10.8781  10.8781  11.0570  11.0570  11.2529  11.2529
 11.4271  11.4271  11.5492  11.5492  11.6007  11.6052  11.6052  11.7037
 11.7037  11.7085  11.7085  11.8651  11.8651  12.0367  12.4574  12.4574
 12.5409  12.5409  13.2665  13.6127  13.6127  13.8298  15.5261  16.8364
 16.8364  17.2498  17.2498  17.8039  17.8039  18.2303  19.1969  29.8925
 31.7536  31.7536  31.9221  31.9221  32.3956  62.3268  62.3269  62.4991
 62.4991  63.0592  72.6128

 Beta MOs
 -- Occupied --
-88.1130  -9.9905  -7.7278  -5.7471  -5.7471  -5.7453  -0.7667  -0.4786
 -0.3271  -0.3271  -0.2710
 -- Virtual --
 -0.1244  -0.1244  -0.0062   0.0042   0.0151   0.0151   0.0278   0.0381
  0.0381   0.0587   0.0711   0.0770   0.0770   0.0903   0.0903   0.0953
  0.1175   0.1175   0.1269   0.1306   0.1306   0.1438   0.1438   0.1583
  0.2010   0.2096   0.2096   0.2148   0.2148   0.2200   0.2200   0.2479
  0.2479   0.2571   0.2579   0.2579   0.2616   0.2655   0.2655   0.2739
  0.2739   0.3019   0.3019   0.3099   0.3633   0.3633   0.3680   0.3692
  0.3692   0.3752   0.4128   0.4128   0.4199   0.4199   0.4504   0.4566
  0.4566   0.4688   0.4688   0.4783   0.4783   0.4960   0.4960   0.5074
  0.5074   0.5333   0.5333   0.5337   0.5337   0.5338   0.5626   0.5626
  0.5796   0.5796   0.5935   0.6189   0.6189   0.6208   0.6242   0.6242
  0.6320   0.6320   0.6679   0.6679   0.6718   0.6781   0.6781   0.6926
  0.6926   0.7030   0.7030   0.7396   0.7396   0.7421   0.7868   0.7868
  0.7925   0.8195   0.8195   0.8759   0.8840   0.8840   0.9727   0.9727
  0.9760   0.9760   0.9969   1.0304   1.0304   1.1053   1.1053   1.1187
  1.1992   1.2475   1.2475   1.2584   1.2584   1.3426   1.3426   1.3782
  1.4220   1.5500   1.5500   1.5550   1.5550   1.6097   1.7232   1.7232
  1.9399   1.9399   2.0180   2.0180   2.1057   2.1141   2.1141   2.1529
  2.1529   2.2486   2.3547   2.3547   2.4646   2.4691   2.4691   2.5209
  2.5209   2.5478   2.5478   2.6741   2.8190   2.8190   2.8500   3.1757
  3.1757   3.2004   3.2406   3.2406   3.2524   3.2524   3.3826   3.4731
  3.4731   3.6003   3.8076   3.8076   3.9657   3.9657   4.0126   4.0126
  4.0141   4.0141   4.1690   4.1690   4.3599   4.3599   4.4742   4.5946
  4.5946   4.7648   4.7678   4.7678   4.7799   4.7799   5.1197   5.1197
  5.1447   5.1447   5.2864   5.4344   5.4344   5.4886   5.4886   5.5487
  5.5487   5.7246   5.7539   5.8137   5.8137   6.0309   6.2982   6.2982
  6.3677   6.3677   6.7053   6.7053   7.4666   7.7119   8.1394   8.1394
  8.1908   8.1908   8.4087   8.4087   8.5613   8.5613   9.0999  10.2034
 10.2034  10.2427  10.2427  10.4651  10.4651  10.7434  10.7434  10.7473
 10.7473  10.8247  10.8781  10.8781  11.0570  11.0570  11.2529  11.2529
 11.4271  11.4271  11.5492  11.5492  11.6007  11.6052  11.6052  11.7037
 11.7037  11.7085  11.7085  11.8651  11.8651  12.0367  12.4574  12.4574
 12.5409  12.5409  13.2665  13.6127  13.6127  13.8298  15.5261  16.8364
 16.8364  17.2498  17.2498  17.8039  17.8039  18.2303  19.1969  29.8925
 31.7536  31.7536  31.9221  31.9221  32.3956  62.3268  62.3269  62.4991
 62.4991  63.0592  72.6128
 --------------------------------------------------------------

          Ground-State Mulliken Net Atomic Charges

     Atom                 Charge (a.u.)    Spin (a.u.)
  --------------------------------------------------------
      1 C                     0.007186      -0.000000
      2 S                    -0.007186       0.000000
  --------------------------------------------------------
  Sum of atomic charges =     0.000000
  Sum of spin   charges =    -0.000000

 -----------------------------------------------------------------
                    Cartesian Multipole Moments
 -----------------------------------------------------------------
    Charge (ESU x 10^10)
                 0.0000
    Dipole Moment (Debye)
         X       0.0000      Y       0.0000      Z       1.9944
       Tot       1.9944
    Quadrupole Moments (Debye-Ang)
        XX     -18.1291     XY      -0.0000     YY     -18.1291
        XZ       0.0000     YZ       0.0000     ZZ     -16.2032
    Octopole Moments (Debye-Ang^2)
       XXX       0.0000    XXY       0.0000    XYY      -0.0000
       YYY       0.0000    XXZ     -18.1239    XYZ      -0.0000
       YYZ     -18.1239    XZZ       0.0000    YZZ       0.0000
       ZZZ     -48.8815
    Hexadecapole Moments (Debye-Ang^3)
      XXXX     -22.8015   XXXY      -0.0000   XXYY      -7.6005
      XYYY      -0.0000   YYYY     -22.8015   XXXZ       0.0000
      XXYZ       0.0000   XYYZ      -0.0000   YYYZ       0.0000
      XXZZ     -35.6857   XYZZ      -0.0000   YYZZ     -35.6857
      XZZZ       0.0000   YZZZ       0.0000   ZZZZ    -182.6355
 -----------------------------------------------------------------
Archival summary:
1\1\n0096.mhg0\SP\ProcedureUnspecified\BasisUnspecified\11\yhljason\SatAug2216:04:522020SatAug2216:04:522020\0\\#,ProcedureUnspecified,BasisUnspecified,\\0,1\C\S,1,1.5349\\\@

 Total job time:  2841.57s(wall), 22316.50s(cpu) 
 Sat Aug 22 16:04:52 2020

        *************************************************************
        *                                                           *
        *  Thank you very much for using Q-Chem.  Have a nice day.  *
        *                                                           *
        *************************************************************


