                  Welcome to Q-Chem
     A Quantum Leap Into The Future Of Chemistry


 Q-Chem 5.3 (devel), Q-Chem, Inc., Pleasanton, CA (2020)

 Yihan Shao,  Zhengting Gan,  E. Epifanovsky,  A. T. B. Gilbert,  M. Wormit,  
 J. Kussmann,  A. W. Lange,  A. Behn,  Jia Deng,  Xintian Feng,  D. Ghosh,  
 M. Goldey,  P. R. Horn,  L. D. Jacobson,  I. Kaliman,  T. Kus,  A. Landau,  
 Jie Liu,  E. I. Proynov,  R. M. Richard,  R. P. Steele,  E. J. Sundstrom,  
 H. L. Woodcock III,  P. M. Zimmerman,  D. Zuev,  B. Alam,  B. Albrecht,  
 E. Alguire,  S. A. Baeppler,  D. Barton,  Z. Benda,  Y. A. Bernard,  
 E. J. Berquist,  K. B. Bravaya,  H. Burton,  K. Carter-Fenk,  D. Casanova,  
 Chun-Min Chang,  Yunqing Chen,  A. Chien,  K. D. Closser,  M. P. Coons,  
 S. Coriani,  S. Dasgupta,  A. L. Dempwolff,  M. Diedenhofen,  Hainam Do,  
 R. G. Edgar,  Po-Tung Fang,  S. Faraji,  S. Fatehi,  Qingguo Feng,  
 J. Fosso-Tande,  J. Gayvert,  Qinghui Ge,  A. Ghysels,  G. Gidofalvi,  
 J. Gomes,  J. Gonthier,  A. Gunina,  D. Hait,  M. W. D. Hanson-Heine,  
 P. H. P. Harbach,  A. W. Hauser,  M. F. Herbst,  J. E. Herr,  
 E. G. Hohenstein,  Z. C. Holden,  Kerwin Hui,  B. C. Huynh,  T.-C. Jagau,  
 Hyunjun Ji,  B. Kaduk,  K. Khistyaev,  Jaehoon Kim,  P. Klunzinger,  K. Koh,  
 D. Kosenkov,  L. Koulias,  T. Kowalczyk,  C. M. Krauter,  A. Kunitsa,  
 Ka Un Lao,  A. Laurent,  K. V. Lawler,  Joonho Lee,  D. Lefrancois,  
 S. Lehtola,  D. S. Levine,  Yi-Pei Li,  You-Sheng Lin,  Fenglai Liu,  
 Kuan-Yu Liu,  E. Livshits,  M. Loipersberger,  A. Luenser,  P. Manohar,  
 E. Mansoor,  S. F. Manzer,  Shan-Ping Mao,  Yuezhi Mao,  N. Mardirossian,  
 A. V. Marenich,  T. Markovich,  L. A. Martinez-Martinez,  S. A. Maurer,  
 N. J. Mayhall,  S. C. McKenzie,  J.-M. Mewes,  P. Morgante,  A. F. Morrison,  
 J. W. Mullinax,  K. Nanda,  T. S. Nguyen-Beck,  R. Olivares-Amaya,  
 K. J. Oosterbaan,  J. A. Parkhill,  S. K. Paul,  F. Pavosevic,  Zheng Pei,  
 T. M. Perrine,  F. Plasser,  P. Pokhilko,  S. Prager,  A. Prociuk,  
 E. Ramos,  B. Rana,  D. R. Rehn,  F. Rob,  M. Scheurer,  M. Schneider,  
 N. Sergueev,  S. M. Sharada,  S. Sharma,  D. W. Small,  T. Stauch,  
 C. J. Stein,  T. Stein,  Yu-Chuan Su,  S. P. Veccham,  Zhen Tao,  
 A. J. W. Thom,  A. Tkatchenko,  T. Tsuchimochi,  N. M. Tubman,  L. Vogt,  
 M. L. Vidal,  O. Vydrov,  M. A. Watson,  J. Wenzel,  M. de Wergifosse,  
 T. A. Wesolowski,  A. White,  J. Witte,  A. Yamada,  Jun Yang,  K. Yao,  
 S. Yeganeh,  S. R. Yost,  Zhi-Qiang You,  A. Zech,  Igor Ying Zhang,  
 Xing Zhang,  Yan Zhao,  Ying Zhu,  B. R. Brooks,  G. K. L. Chan,  
 C. J. Cramer,  M. S. Gordon,  W. J. Hehre,  A. Klamt,  M. W. Schmidt,  
 C. D. Sherrill,  D. G. Truhlar,  A. Aspuru-Guzik,  R. Baer,  A. T. Bell,  
 N. A. Besley,  Jeng-Da Chai,  A. E. DePrince, III,  R. A. DiStasio Jr.,  
 A. Dreuw,  B. D. Dunietz,  T. R. Furlani,  Chao-Ping Hsu,  Yousung Jung,  
 Jing Kong,  D. S. Lambrecht,  WanZhen Liang,  C. Ochsenfeld,  
 V. A. Rassolov,  L. V. Slipchenko,  J. E. Subotnik,  T. Van Voorhis,  
 J. M. Herbert,  A. I. Krylov,  P. M. W. Gill,  M. Head-Gordon

 Contributors to earlier versions of Q-Chem not listed above: 
 R. D. Adamson,  B. Austin,  J. Baker,  G. J. O. Beran,  K. Brandhorst,  
 S. T. Brown,  E. F. C. Byrd,  A. K. Chakraborty,  C.-L. Cheng,  
 Siu Hung Chien,  D. M. Chipman,  D. L. Crittenden,  H. Dachsel,  
 R. J. Doerksen,  A. D. Dutoi,  L. Fusti-Molnar,  W. A. Goddard III,  
 A. Golubeva-Zadorozhnaya,  S. R. Gwaltney,  G. Hawkins,  A. Heyden,  
 S. Hirata,  G. Kedziora,  F. J. Keil,  C. Kelley,  Jihan Kim,  R. A. King,  
 R. Z. Khaliullin,  P. P. Korambath,  W. Kurlancheek,  A. M. Lee,  M. S. Lee,  
 S. V. Levchenko,  Ching Yeh Lin,  D. Liotard,  R. C. Lochan,  I. Lotan,  
 P. E. Maslen,  N. Nair,  D. P. O'Neill,  D. Neuhauser,  E. Neuscamman,  
 C. M. Oana,  R. Olson,  B. Peters,  R. Peverati,  P. A. Pieniazek,  
 Y. M. Rhee,  J. Ritchie,  M. A. Rohrdanz,  E. Rosta,  N. J. Russ,  
 H. F. Schaefer III,  N. E. Schultz,  N. Shenvi,  A. C. Simmonett,  A. Sodt,  
 D. Stuck,  K. S. Thanthiriwatte,  V. Vanovschi,  Tao Wang,  A. Warshel,  
 C. F. Williams,  Q. Wu,  X. Xu,  W. Zhang

 Please cite Q-Chem as follows:
 Y. Shao et al., Mol. Phys. 113, 184-215 (2015)
 DOI: 10.1080/00268976.2014.952696

 Q-Chem 5.3.0 for Intel X86 EM64T Linux

 Parts of Q-Chem use Armadillo 9.800.1 (Horizon Scraper).
 http://arma.sourceforge.net/

 Q-Chem begins on Sat Aug 22 14:07:35 2020  

n0075.mhg0
Host: 0

     Scratch files written to /local/scratch/users/yhljason/CSO_B97M-V_aug-pc-4.inp20200822092033//
Processing $rem in /clusterfs/mhg/diptarka/qchem_transmom//config/preferences:
Processing $rem in /global/home/users/yhljason/.qchemrc:

Checking the input file for inconsistencies... 	...done.

--------------------------------------------------------------
User input:
--------------------------------------------------------------
$molecule
0 1
C1      0.0000  0.0000  0.0000
O2      0.0000  0.0000  1.1600
S3      0.0000  0.0000  -1.5600
$end

$rem
jobtype sp
method B97M-V
xc_grid 000099000590
basis aug-pc-4
max_scf_cycles 200
thresh 14
scf_convergence 8
scf_algorithm gdm
symmetry false
sym_ignore true
unrestricted true
gen_scfman true
internal_stability_iter 15
internal_stability_davidson_iter 200
mem_total 64000
mem_static 1500
n_frozen_core 0
$end


--------------------------------------------------------------
 ----------------------------------------------------------------
             Standard Nuclear Orientation (Angstroms)
    I     Atom           X                Y                Z
 ----------------------------------------------------------------
    1      C       0.0000000000     0.0000000000     0.0000000000
    2      O       0.0000000000     0.0000000000     1.1600000000
    3      S       0.0000000000     0.0000000000    -1.5600000000
 ----------------------------------------------------------------
 Nuclear Repulsion Energy =          79.36419645 hartrees
 There are       15 alpha and       15 beta electrons
 Requested basis set is aug-pc-4
 There are 97 shells and 431 basis functions

 Total QAlloc Memory Limit  64000 MB
 Mega-Array Size      1467 MB
 MEM_STATIC part      1500 MB

                       Distance Matrix (Angstroms)
             C (  1)   O (  2)
   O (  2)  1.160000
   S (  3)  1.560000  2.720000

 A cutoff of  1.0D-14 yielded   4665 shell pairs
 There are     93069 function pairs (    182639 Cartesian)
 Smallest overlap matrix eigenvalue = 2.60E-07
 Linear dependence detected in AO basis
 Tighter screening thresholds may be required for diffuse basis sets
 Use S2THRESH > 14 and THRESH = 14 in case of SCF convergence issues
 Number of orthogonalized atomic orbitals = 429
 Maximum deviation from orthogonality = 1.712E-10

 Scale SEOQF with 1.000000e-01/1.000000e-01/1.000000e-01

 Standard Electronic Orientation quadrupole field applied
 Nucleus-field energy     =    -0.0000000053 hartrees
 Guess from superposition of atomic densities
 Warning:  Energy on first SCF cycle will be non-variational
 SAD guess density has 30.000000 electrons

 -----------------------------------------------------------------------
  General SCF calculation program by
  Eric Jon Sundstrom, Paul Horn, Yuezhi Mao, Dmitri Zuev, Alec White,
  David Stuck, Shaama M.S., Shane Yost, Joonho Lee, David Small,
  Daniel Levine, Susi Lehtola, Hugh Burton, Evgeny Epifanovsky,
  Bang C. Huynh
 -----------------------------------------------------------------------
 Exchange:  B97M-V      Correlation:  B97M-V
 Using Euler-Maclaurin-Lebedev (99,590) quadrature formula
 Nonlocal Correlation:  VV10 with C = 0.0100 and b = 6.00 and scale = 1.00000
 Grid used for NLC:  SG-1 standard quadrature
Running Object-Oriented UKS (UHF)
performing a single roothaan step with Fock from read density so that orbitals are available to all algorithms
 -------------------------------------------------------
 OpenMP BLAS3 based DFT computing Module                
 Release: version 1.0, May 2013, Q-Chem Inc. Pittsburgh 
 -------------------------------------------------------
 -------------------------------------------------------
 OpenMP BLAS3 based DFT computing Module                
 Release: version 1.0, May 2013, Q-Chem Inc. Pittsburgh 
 -------------------------------------------------------
 -------------------------------------------------------
 OpenMP BLAS3 based DFT computing Module                
 Release: version 1.0, May 2013, Q-Chem Inc. Pittsburgh 
 -------------------------------------------------------
energy of the guess density (C=0) -511.949125815357
 -------------------------------------------------------
 OpenMP BLAS3 based DFT computing Module                
 Release: version 1.0, May 2013, Q-Chem Inc. Pittsburgh 
 -------------------------------------------------------
 -------------------------------------------------------
 OpenMP BLAS3 based DFT computing Module                
 Release: version 1.0, May 2013, Q-Chem Inc. Pittsburgh 
 -------------------------------------------------------
 -------------------------------------------------------
 OpenMP BLAS3 based DFT computing Module                
 Release: version 1.0, May 2013, Q-Chem Inc. Pittsburgh 
 -------------------------------------------------------
We will preform up to 15 macro iterations over saddle points until a stable solution is found
Energy prior to optimization (guess energy) = -511.456084714329
Begin Timing: Total SCF Calculation
Begin Timing: SCF Single Stationary Point Calculation
begin iterations for algorithm: GDM          
the SCF tolerance is set to 1.00e-08
    1    -511.4560847143      2.07e-01     00000  Descent step
    2    -511.3870564110      6.85e-01     00000 Line search: overstep
    3    -511.4916106754      1.36e-02     00000  Normal BFGS step
    4    -511.4933341870      1.93e-02     00000  Normal BFGS step
    5    -511.4960703957      8.61e-03     00000  Normal BFGS step
    6    -511.4957525174      1.60e-02     00000 Line search: overstep
    7    -511.4961755826      7.09e-04     00000  Normal BFGS step
    8    -511.4961832649      2.28e-04     00000  Normal BFGS step
    9    -511.4961839906      4.59e-05     00000  Normal BFGS step
   10    -511.4961840381      8.08e-06     00000  Normal BFGS step
   11    -511.4961840404      1.95e-06     00000  Normal BFGS step
   12    -511.4961840404      1.85e-07     00000  Normal BFGS step
   13    -511.4961840404      8.05e-08     00000  Normal BFGS step
   14    -511.4961840404      1.72e-07     00000  Normal BFGS step
   15    -511.4961840404      3.11e-08     00000  Normal BFGS step
   16    -511.4961840404      1.66e-08     00000  Normal BFGS step
   17    -511.4961840404      5.25e-09     00000 Convergence criterion met
Timing for Single Stationary Point: 4579.00s (wall), 35982.84s (cpu)
Begin Timing: Stability
===================================================
Beginning Test for Internal Stability
===================================================
generating davidson guess vectors based on koopmans excitations
computing hessian-vector products by finite difference
    1      6.45e-01     00000 Davidson Iteration
computing hessian-vector products by finite difference
    2      2.08e-01     00000 Davidson Iteration
computing hessian-vector products by finite difference
    3      1.98e-02     00000 Davidson Iteration
computing hessian-vector products by finite difference
    4      1.24e-02     00000 Davidson Iteration
computing hessian-vector products by finite difference
    5      2.23e-03     00000 Davidson Iteration
computing hessian-vector products by finite difference
    6      5.86e-04     00000 Davidson Iteration
computing hessian-vector products by finite difference
    7      6.64e-02     00000 Davidson Iteration
computing hessian-vector products by finite difference
    8      1.20e-02     00000 Davidson Iteration
computing hessian-vector products by finite difference
    9      3.76e-03     00000 Davidson Iteration
computing hessian-vector products by finite difference
   10      1.91e-03     00000 Davidson Iteration
computing hessian-vector products by finite difference
   11      5.71e-04     00000 Davidson Converged
converged_eigenvalues
   0.3396
   0.2936
Threshold for negative eigenvalues: -1.0e-05
solution was a local minimum (stable)
===================================================
End Test for Internal Stability
===================================================
Timing for Internal Stability: 14804.00s (wall), 116874.13s (cpu)
Our SCF solution is stable!
Timing for Total SCF: 19383.00s (wall), 152857.15s (cpu)
 Total energy in the final basis set =     -511.4961840404
<S^2> =         -0.000000000
    ==================================================
              The end of Object-Oriented SCFman       
    ==================================================

 --------------------------------------------------------------

                    Orbital Energies (a.u.)
 --------------------------------------------------------------

 Alpha MOs
 -- Occupied --
-88.9699 -19.2350 -10.3379  -8.0015  -5.8691  -5.8632  -5.8632  -1.1333
 -0.8041  -0.5305  -0.4514  -0.4472  -0.4472  -0.2865  -0.2865
 -- Virtual --
 -0.0609  -0.0609  -0.0187   0.0101   0.0170   0.0170   0.0218   0.0391
  0.0391   0.0394   0.0657   0.0682   0.0682   0.0696   0.0696   0.0765
  0.0771   0.0976   0.0976   0.1201   0.1201   0.1215   0.1287   0.1288
  0.1676   0.1704   0.1704   0.1843   0.1856   0.1856   0.1932   0.1932
  0.1969   0.1969   0.1976   0.2216   0.2280   0.2280   0.2468   0.2468
  0.2534   0.2534   0.2696   0.2755   0.2755   0.2796   0.2797   0.2838
  0.3086   0.3086   0.3343   0.3343   0.3447   0.3447   0.3549   0.3629
  0.3630   0.3881   0.3981   0.3981   0.4056   0.4056   0.4248   0.4248
  0.4281   0.4523   0.4523   0.4550   0.4747   0.4747   0.4748   0.4748
  0.4986   0.5068   0.5141   0.5141   0.5147   0.5147   0.5390   0.5390
  0.5471   0.5471   0.5603   0.5616   0.5616   0.5741   0.5741   0.5840
  0.5842   0.5901   0.5901   0.6164   0.6164   0.6316   0.6452   0.6452
  0.6474   0.6474   0.6491   0.6491   0.6832   0.6896   0.6896   0.7038
  0.7038   0.7413   0.7596   0.7596   0.7718   0.7866   0.7866   0.7951
  0.7952   0.8217   0.8217   0.8233   0.8270   0.8272   0.8659   0.8659
  0.8957   0.8957   0.9094   0.9169   0.9169   0.9594   0.9642   0.9642
  0.9744   0.9744   0.9755   0.9963   0.9963   1.0066   1.0066   1.0161
  1.0162   1.0695   1.0695   1.0830   1.0830   1.0903   1.0903   1.0955
  1.0955   1.0961   1.1342   1.1342   1.1944   1.2769   1.2770   1.2890
  1.2890   1.2924   1.3399   1.3399   1.3714   1.3916   1.4383   1.4383
  1.4748   1.4748   1.5214   1.5337   1.5337   1.6518   1.6518   1.6711
  1.6711   1.7413   1.8068   1.8068   1.8188   1.8470   1.8470   1.9535
  2.0538   2.0776   2.0776   2.1118   2.1118   2.1381   2.1381   2.2169
  2.2169   2.2412   2.2412   2.2757   2.3890   2.3890   2.4573   2.4799
  2.4799   2.6260   2.6260   2.6500   2.6500   2.7364   2.7365   2.7394
  2.7394   2.8183   2.8183   2.8409   2.9122   2.9122   2.9602   3.1675
  3.3656   3.3887   3.3887   3.4905   3.4905   3.5374   3.5374   3.6179
  3.6416   3.6416   3.8695   3.8943   3.9059   3.9059   3.9451   3.9451
  4.0627   4.1338   4.1338   4.2652   4.2652   4.3061   4.3061   4.3287
  4.3287   4.4394   4.4394   4.4886   4.4886   4.5354   4.6625   4.6625
  4.6792   4.8930   4.8930   4.9573   4.9573   5.1475   5.1586   5.1586
  5.2038   5.2038   5.3144   5.4472   5.4472   5.4489   5.4489   5.6109
  5.6109   5.6118   5.6118   5.6358   5.8867   5.8867   5.9215   5.9215
  5.9917   5.9917   6.1062   6.1702   6.1702   6.2378   6.3386   6.3386
  6.3671   6.3671   6.7139   6.7139   6.8341   6.9554   6.9554   7.0495
  7.0495   7.2499   7.4343   7.4343   7.9568   7.9568   8.0666   8.3835
  8.3835   8.5477   8.5777   8.5778   8.6346   8.6346   8.8178   8.8222
  8.8222   8.9409   8.9409   9.4783   9.4783   9.6190   9.9615  10.0028
 10.0028  10.6915  10.6915  10.7532  10.7532  10.9357  10.9357  11.0880
 11.2078  11.2078  11.2543  11.2543  11.3125  11.3125  11.4085  11.4085
 11.5563  11.8487  11.8487  11.8723  11.8723  11.9787  11.9787  11.9885
 11.9885  12.1537  12.2301  12.2302  12.2669  12.2669  12.4288  12.4288
 12.5058  12.5058  12.6982  12.8701  12.8701  13.1141  13.1141  13.1187
 13.1187  13.2627  13.2627  13.2815  13.2815  13.2871  13.2871  13.3792
 13.5908  13.8217  13.8217  14.3222  14.3222  14.3420  14.3420  14.3793
 15.2342  15.2342  15.5662  16.6677  16.6677  16.8243  17.1141  17.3934
 17.3934  17.8161  17.8161  17.9870  17.9871  18.2780  18.2780  18.2832
 18.2832  19.1574  19.1574  19.3813  19.6363  19.8296  19.8296  19.9434
 19.9434  20.6181  23.4863  23.9117  23.9117  25.3439  25.3439  27.6349
 31.3634  31.8631  32.6581  32.6582  32.9631  32.9631  33.7169  33.7169
 35.0912  35.8777  63.7439  63.7451  63.9905  63.9905  64.6085  67.9790
 67.9792  68.7842  68.7842  70.3405  77.8745 147.1673

 Beta MOs
 -- Occupied --
-88.9699 -19.2350 -10.3379  -8.0015  -5.8691  -5.8632  -5.8632  -1.1333
 -0.8041  -0.5305  -0.4514  -0.4472  -0.4472  -0.2865  -0.2865
 -- Virtual --
 -0.0609  -0.0609  -0.0187   0.0101   0.0170   0.0170   0.0218   0.0391
  0.0391   0.0394   0.0657   0.0682   0.0682   0.0696   0.0696   0.0765
  0.0771   0.0976   0.0976   0.1201   0.1201   0.1215   0.1287   0.1288
  0.1676   0.1704   0.1704   0.1843   0.1856   0.1856   0.1932   0.1932
  0.1969   0.1969   0.1976   0.2216   0.2280   0.2280   0.2468   0.2468
  0.2534   0.2534   0.2696   0.2755   0.2755   0.2796   0.2797   0.2838
  0.3086   0.3086   0.3343   0.3343   0.3447   0.3447   0.3549   0.3629
  0.3630   0.3881   0.3981   0.3981   0.4056   0.4056   0.4248   0.4248
  0.4281   0.4523   0.4523   0.4550   0.4747   0.4747   0.4748   0.4748
  0.4986   0.5068   0.5141   0.5141   0.5147   0.5147   0.5390   0.5390
  0.5471   0.5471   0.5603   0.5616   0.5616   0.5741   0.5741   0.5840
  0.5842   0.5901   0.5901   0.6164   0.6164   0.6316   0.6452   0.6452
  0.6474   0.6474   0.6491   0.6491   0.6832   0.6896   0.6896   0.7038
  0.7038   0.7413   0.7596   0.7596   0.7718   0.7866   0.7866   0.7951
  0.7952   0.8217   0.8217   0.8233   0.8270   0.8272   0.8659   0.8659
  0.8957   0.8957   0.9094   0.9169   0.9169   0.9594   0.9642   0.9642
  0.9744   0.9744   0.9755   0.9963   0.9963   1.0066   1.0066   1.0161
  1.0162   1.0695   1.0695   1.0830   1.0830   1.0903   1.0903   1.0955
  1.0955   1.0961   1.1342   1.1342   1.1944   1.2769   1.2770   1.2890
  1.2890   1.2924   1.3399   1.3399   1.3714   1.3916   1.4383   1.4383
  1.4748   1.4748   1.5214   1.5337   1.5337   1.6518   1.6518   1.6711
  1.6711   1.7413   1.8068   1.8068   1.8188   1.8470   1.8470   1.9535
  2.0538   2.0776   2.0776   2.1118   2.1118   2.1381   2.1381   2.2169
  2.2169   2.2412   2.2412   2.2757   2.3890   2.3890   2.4573   2.4799
  2.4799   2.6260   2.6260   2.6500   2.6500   2.7364   2.7365   2.7394
  2.7394   2.8183   2.8183   2.8409   2.9122   2.9122   2.9602   3.1675
  3.3656   3.3887   3.3887   3.4905   3.4905   3.5374   3.5374   3.6179
  3.6416   3.6416   3.8695   3.8943   3.9059   3.9059   3.9451   3.9451
  4.0627   4.1338   4.1338   4.2652   4.2652   4.3061   4.3061   4.3287
  4.3287   4.4394   4.4394   4.4886   4.4886   4.5354   4.6625   4.6625
  4.6792   4.8930   4.8930   4.9573   4.9573   5.1475   5.1586   5.1586
  5.2038   5.2038   5.3144   5.4472   5.4472   5.4489   5.4489   5.6109
  5.6109   5.6118   5.6118   5.6358   5.8867   5.8867   5.9215   5.9215
  5.9917   5.9917   6.1062   6.1702   6.1702   6.2378   6.3386   6.3386
  6.3671   6.3671   6.7139   6.7139   6.8341   6.9554   6.9554   7.0495
  7.0495   7.2499   7.4343   7.4343   7.9568   7.9568   8.0666   8.3835
  8.3835   8.5477   8.5777   8.5778   8.6346   8.6346   8.8178   8.8222
  8.8222   8.9409   8.9409   9.4783   9.4783   9.6190   9.9615  10.0028
 10.0028  10.6915  10.6915  10.7532  10.7532  10.9357  10.9357  11.0880
 11.2078  11.2078  11.2543  11.2543  11.3125  11.3125  11.4085  11.4085
 11.5563  11.8487  11.8487  11.8723  11.8723  11.9787  11.9787  11.9885
 11.9885  12.1537  12.2301  12.2302  12.2669  12.2669  12.4288  12.4288
 12.5058  12.5058  12.6982  12.8701  12.8701  13.1141  13.1141  13.1187
 13.1187  13.2627  13.2627  13.2815  13.2815  13.2871  13.2871  13.3792
 13.5908  13.8217  13.8217  14.3222  14.3222  14.3420  14.3420  14.3793
 15.2342  15.2342  15.5662  16.6677  16.6677  16.8243  17.1141  17.3934
 17.3934  17.8161  17.8161  17.9870  17.9871  18.2780  18.2780  18.2832
 18.2832  19.1574  19.1574  19.3813  19.6363  19.8296  19.8296  19.9434
 19.9434  20.6181  23.4863  23.9117  23.9117  25.3439  25.3439  27.6349
 31.3634  31.8631  32.6581  32.6582  32.9631  32.9631  33.7169  33.7169
 35.0912  35.8777  63.7439  63.7451  63.9905  63.9905  64.6085  67.9790
 67.9792  68.7842  68.7842  70.3405  77.8745 147.1673
 --------------------------------------------------------------

          Ground-State Mulliken Net Atomic Charges

     Atom                 Charge (a.u.)    Spin (a.u.)
  --------------------------------------------------------
      1 C                     0.453013       0.000000
      2 O                    -0.206232       0.000000
      3 S                    -0.246781      -0.000000
  --------------------------------------------------------
  Sum of atomic charges =    -0.000000
  Sum of spin   charges =     0.000000

 -----------------------------------------------------------------
                    Cartesian Multipole Moments
 -----------------------------------------------------------------
    Charge (ESU x 10^10)
                 0.0000
    Dipole Moment (Debye)
         X      -0.0000      Y       0.0000      Z      -0.7325
       Tot       0.7325
    Quadrupole Moments (Debye-Ang)
        XX     -23.2249     XY       0.0000     YY     -23.2249
        XZ       0.0000     YZ      -0.0000     ZZ     -23.5074
    Octopole Moments (Debye-Ang^2)
       XXX      -0.0000    XXY       0.0000    XYY      -0.0000
       YYY       0.0000    XXZ      14.8117    XYZ      -0.0000
       YYZ      14.8117    XZZ      -0.0000    YZZ       0.0000
       ZZZ      33.6293
    Hexadecapole Moments (Debye-Ang^3)
      XXXX     -26.8685   XXXY       0.0000   XXYY      -8.9562
      XYYY       0.0000   YYYY     -26.8685   XXXZ       0.0000
      XXYZ      -0.0000   XYYZ       0.0000   YYYZ      -0.0000
      XXZZ     -47.5312   XYZZ       0.0000   YYZZ     -47.5312
      XZZZ       0.0000   YZZZ       0.0000   ZZZZ    -232.7874
 -----------------------------------------------------------------
Archival summary:
1\1\n0075.mhg0\SP\ProcedureUnspecified\BasisUnspecified\111\yhljason\SatAug2219:39:512020SatAug2219:39:512020\0\\#,ProcedureUnspecified,BasisUnspecified,\\0,1\S\C,1,1.56\O,2,1.16,1,180\\\@

 Total job time:  19935.43s(wall), 157195.00s(cpu) 
 Sat Aug 22 19:39:51 2020

        *************************************************************
        *                                                           *
        *  Thank you very much for using Q-Chem.  Have a nice day.  *
        *                                                           *
        *************************************************************


