                  Welcome to Q-Chem
     A Quantum Leap Into The Future Of Chemistry


 Q-Chem 5.3 (devel), Q-Chem, Inc., Pleasanton, CA (2020)

 Yihan Shao,  Zhengting Gan,  E. Epifanovsky,  A. T. B. Gilbert,  M. Wormit,  
 J. Kussmann,  A. W. Lange,  A. Behn,  Jia Deng,  Xintian Feng,  D. Ghosh,  
 M. Goldey,  P. R. Horn,  L. D. Jacobson,  I. Kaliman,  T. Kus,  A. Landau,  
 Jie Liu,  E. I. Proynov,  R. M. Richard,  R. P. Steele,  E. J. Sundstrom,  
 H. L. Woodcock III,  P. M. Zimmerman,  D. Zuev,  B. Alam,  B. Albrecht,  
 E. Alguire,  S. A. Baeppler,  D. Barton,  Z. Benda,  Y. A. Bernard,  
 E. J. Berquist,  K. B. Bravaya,  H. Burton,  K. Carter-Fenk,  D. Casanova,  
 Chun-Min Chang,  Yunqing Chen,  A. Chien,  K. D. Closser,  M. P. Coons,  
 S. Coriani,  S. Dasgupta,  A. L. Dempwolff,  M. Diedenhofen,  Hainam Do,  
 R. G. Edgar,  Po-Tung Fang,  S. Faraji,  S. Fatehi,  Qingguo Feng,  
 J. Fosso-Tande,  J. Gayvert,  Qinghui Ge,  A. Ghysels,  G. Gidofalvi,  
 J. Gomes,  J. Gonthier,  A. Gunina,  D. Hait,  M. W. D. Hanson-Heine,  
 P. H. P. Harbach,  A. W. Hauser,  M. F. Herbst,  J. E. Herr,  
 E. G. Hohenstein,  Z. C. Holden,  Kerwin Hui,  B. C. Huynh,  T.-C. Jagau,  
 Hyunjun Ji,  B. Kaduk,  K. Khistyaev,  Jaehoon Kim,  P. Klunzinger,  K. Koh,  
 D. Kosenkov,  L. Koulias,  T. Kowalczyk,  C. M. Krauter,  A. Kunitsa,  
 Ka Un Lao,  A. Laurent,  K. V. Lawler,  Joonho Lee,  D. Lefrancois,  
 S. Lehtola,  D. S. Levine,  Yi-Pei Li,  You-Sheng Lin,  Fenglai Liu,  
 Kuan-Yu Liu,  E. Livshits,  M. Loipersberger,  A. Luenser,  P. Manohar,  
 E. Mansoor,  S. F. Manzer,  Shan-Ping Mao,  Yuezhi Mao,  N. Mardirossian,  
 A. V. Marenich,  T. Markovich,  L. A. Martinez-Martinez,  S. A. Maurer,  
 N. J. Mayhall,  S. C. McKenzie,  J.-M. Mewes,  P. Morgante,  A. F. Morrison,  
 J. W. Mullinax,  K. Nanda,  T. S. Nguyen-Beck,  R. Olivares-Amaya,  
 K. J. Oosterbaan,  J. A. Parkhill,  S. K. Paul,  F. Pavosevic,  Zheng Pei,  
 T. M. Perrine,  F. Plasser,  P. Pokhilko,  S. Prager,  A. Prociuk,  
 E. Ramos,  B. Rana,  D. R. Rehn,  F. Rob,  M. Scheurer,  M. Schneider,  
 N. Sergueev,  S. M. Sharada,  S. Sharma,  D. W. Small,  T. Stauch,  
 C. J. Stein,  T. Stein,  Yu-Chuan Su,  S. P. Veccham,  Zhen Tao,  
 A. J. W. Thom,  A. Tkatchenko,  T. Tsuchimochi,  N. M. Tubman,  L. Vogt,  
 M. L. Vidal,  O. Vydrov,  M. A. Watson,  J. Wenzel,  M. de Wergifosse,  
 T. A. Wesolowski,  A. White,  J. Witte,  A. Yamada,  Jun Yang,  K. Yao,  
 S. Yeganeh,  S. R. Yost,  Zhi-Qiang You,  A. Zech,  Igor Ying Zhang,  
 Xing Zhang,  Yan Zhao,  Ying Zhu,  B. R. Brooks,  G. K. L. Chan,  
 C. J. Cramer,  M. S. Gordon,  W. J. Hehre,  A. Klamt,  M. W. Schmidt,  
 C. D. Sherrill,  D. G. Truhlar,  A. Aspuru-Guzik,  R. Baer,  A. T. Bell,  
 N. A. Besley,  Jeng-Da Chai,  A. E. DePrince, III,  R. A. DiStasio Jr.,  
 A. Dreuw,  B. D. Dunietz,  T. R. Furlani,  Chao-Ping Hsu,  Yousung Jung,  
 Jing Kong,  D. S. Lambrecht,  WanZhen Liang,  C. Ochsenfeld,  
 V. A. Rassolov,  L. V. Slipchenko,  J. E. Subotnik,  T. Van Voorhis,  
 J. M. Herbert,  A. I. Krylov,  P. M. W. Gill,  M. Head-Gordon

 Contributors to earlier versions of Q-Chem not listed above: 
 R. D. Adamson,  B. Austin,  J. Baker,  G. J. O. Beran,  K. Brandhorst,  
 S. T. Brown,  E. F. C. Byrd,  A. K. Chakraborty,  C.-L. Cheng,  
 Siu Hung Chien,  D. M. Chipman,  D. L. Crittenden,  H. Dachsel,  
 R. J. Doerksen,  A. D. Dutoi,  L. Fusti-Molnar,  W. A. Goddard III,  
 A. Golubeva-Zadorozhnaya,  S. R. Gwaltney,  G. Hawkins,  A. Heyden,  
 S. Hirata,  G. Kedziora,  F. J. Keil,  C. Kelley,  Jihan Kim,  R. A. King,  
 R. Z. Khaliullin,  P. P. Korambath,  W. Kurlancheek,  A. M. Lee,  M. S. Lee,  
 S. V. Levchenko,  Ching Yeh Lin,  D. Liotard,  R. C. Lochan,  I. Lotan,  
 P. E. Maslen,  N. Nair,  D. P. O'Neill,  D. Neuhauser,  E. Neuscamman,  
 C. M. Oana,  R. Olson,  B. Peters,  R. Peverati,  P. A. Pieniazek,  
 Y. M. Rhee,  J. Ritchie,  M. A. Rohrdanz,  E. Rosta,  N. J. Russ,  
 H. F. Schaefer III,  N. E. Schultz,  N. Shenvi,  A. C. Simmonett,  A. Sodt,  
 D. Stuck,  K. S. Thanthiriwatte,  V. Vanovschi,  Tao Wang,  A. Warshel,  
 C. F. Williams,  Q. Wu,  X. Xu,  W. Zhang

 Please cite Q-Chem as follows:
 Y. Shao et al., Mol. Phys. 113, 184-215 (2015)
 DOI: 10.1080/00268976.2014.952696

 Q-Chem 5.3.0 for Intel X86 EM64T Linux

 Parts of Q-Chem use Armadillo 9.800.1 (Horizon Scraper).
 http://arma.sourceforge.net/

 Q-Chem begins on Sat Aug 22 17:19:33 2020  

n0091.mhg0
Host: 0

     Scratch files written to /local/scratch/users/yhljason/HBS_M06-L_aug-pc-4.inp20200822092050//
Processing $rem in /clusterfs/mhg/diptarka/qchem_transmom//config/preferences:
Processing $rem in /global/home/users/yhljason/.qchemrc:

Checking the input file for inconsistencies... 	...done.

--------------------------------------------------------------
User input:
--------------------------------------------------------------
$molecule
0 1
B1      0.0000  0.0000  0.0000
H2      0.0000  0.0000  1.1692
S3      0.0000  0.0000  -1.5995
$end

$rem
jobtype sp
method M06-L
xc_grid 000099000590
basis aug-pc-4
max_scf_cycles 200
thresh 14
scf_convergence 8
scf_algorithm gdm
symmetry false
sym_ignore true
unrestricted true
gen_scfman true
internal_stability_iter 15
internal_stability_davidson_iter 200
mem_total 64000
mem_static 1500
n_frozen_core 0
$end


--------------------------------------------------------------
 ----------------------------------------------------------------
             Standard Nuclear Orientation (Angstroms)
    I     Atom           X                Y                Z
 ----------------------------------------------------------------
    1      B       0.0000000000     0.0000000000     0.0000000000
    2      H       0.0000000000     0.0000000000     1.1692000000
    3      S       0.0000000000     0.0000000000    -1.5995000000
 ----------------------------------------------------------------
 Nuclear Repulsion Energy =          31.78817439 hartrees
 There are       11 alpha and       11 beta electrons
 Requested basis set is aug-pc-4
 There are 88 shells and 374 basis functions

 Total QAlloc Memory Limit  64000 MB
 Mega-Array Size      1467 MB
 MEM_STATIC part      1500 MB

                       Distance Matrix (Angstroms)
             B (  1)   H (  2)
   H (  2)  1.169200
   S (  3)  1.599500  2.768700

 A cutoff of  1.0D-14 yielded   3857 shell pairs
 There are     70403 function pairs (    133226 Cartesian)
 Smallest overlap matrix eigenvalue = 5.14E-07
 Linear dependence detected in AO basis
 Tighter screening thresholds may be required for diffuse basis sets
 Use S2THRESH > 14 and THRESH = 14 in case of SCF convergence issues
 Number of orthogonalized atomic orbitals = 373
 Maximum deviation from orthogonality = 1.136E-10

 Scale SEOQF with 1.000000e-01/1.000000e-01/1.000000e-01

 Standard Electronic Orientation quadrupole field applied
 Nucleus-field energy     =    -0.0000000045 hartrees
 Guess from superposition of atomic densities
 Warning:  Energy on first SCF cycle will be non-variational
 SAD guess density has 22.000000 electrons

 -----------------------------------------------------------------------
  General SCF calculation program by
  Eric Jon Sundstrom, Paul Horn, Yuezhi Mao, Dmitri Zuev, Alec White,
  David Stuck, Shaama M.S., Shane Yost, Joonho Lee, David Small,
  Daniel Levine, Susi Lehtola, Hugh Burton, Evgeny Epifanovsky,
  Bang C. Huynh
 -----------------------------------------------------------------------
 Exchange:  M06-L      Correlation:  M06-L
 Using Euler-Maclaurin-Lebedev (99,590) quadrature formula
Running Object-Oriented UKS (UHF)
performing a single roothaan step with Fock from read density so that orbitals are available to all algorithms
energy of the guess density (C=0) -423.777926064852
We will preform up to 15 macro iterations over saddle points until a stable solution is found
Energy prior to optimization (guess energy) = -423.645606039819
Begin Timing: Total SCF Calculation
Begin Timing: SCF Single Stationary Point Calculation
begin iterations for algorithm: GDM          
the SCF tolerance is set to 1.00e-08
    1    -423.6456060398      8.03e-02     00000  Descent step
    2    -423.6295750743      2.01e-01     00000 Line search: overstep
    3    -423.6752755327      4.96e-02     00000  Normal BFGS step
    4    -423.6670352207      9.53e-02     00000 Line search: overstep
    5    -423.6792501313      5.58e-03     00000  Normal BFGS step
    6    -423.6796915397      3.45e-03     00000  Normal BFGS step
    7    -423.6797955749      1.87e-03     00000  Normal BFGS step
    8    -423.6798336967      8.12e-04     00000  Normal BFGS step
    9    -423.6798392987      3.78e-04     00000  Normal BFGS step
   10    -423.6798395636      2.50e-04     00000  Normal BFGS step
   11    -423.6798396674      2.66e-05     00000  Normal BFGS step
   12    -423.6798396732      5.41e-06     00000  Normal BFGS step
   13    -423.6798396739      3.60e-06     00000  Normal BFGS step
   14    -423.6798396739      1.87e-06     00000  Normal BFGS step
   15    -423.6798396739      1.69e-07     00000  Normal BFGS step
   16    -423.6798396739      4.29e-08     00000  Normal BFGS step
   17    -423.6798396739      3.28e-08     00000  Normal BFGS step
   18    -423.6798396739      7.72e-08     00000  Normal BFGS step
   19    -423.6798396739      1.18e-09     00000 Convergence criterion met
Timing for Single Stationary Point: 2231.00s (wall), 17572.38s (cpu)
Begin Timing: Stability
===================================================
Beginning Test for Internal Stability
===================================================
generating davidson guess vectors based on koopmans excitations
 Warning: Hessian-vector products not implemented
 Finite difference Hessian-vector products will be used.
computing hessian-vector products by finite difference
    1      6.53e-01     00000 Davidson Iteration
computing hessian-vector products by finite difference
    2      2.57e-01     00000 Davidson Iteration
computing hessian-vector products by finite difference
    3      8.03e-02     00000 Davidson Iteration
computing hessian-vector products by finite difference
    4      7.87e-02     00000 Davidson Iteration
computing hessian-vector products by finite difference
    5      6.58e-03     00000 Davidson Iteration
computing hessian-vector products by finite difference
    6      5.33e-03     00000 Davidson Iteration
computing hessian-vector products by finite difference
    7      3.21e-04     00000 Davidson Iteration
computing hessian-vector products by finite difference
    8      1.74e-04     00000 Davidson Iteration
computing hessian-vector products by finite difference
    9      1.33e-04     00000 Davidson Iteration
computing hessian-vector products by finite difference
   10      1.49e-04     00000 Davidson Iteration
computing hessian-vector products by finite difference
   11      5.05e-04     00000 Davidson Iteration
computing hessian-vector products by finite difference
   12      6.08e-04     00000 Davidson Iteration
computing hessian-vector products by finite difference
   13      1.67e-04     00000 Davidson Iteration
computing hessian-vector products by finite difference
   14      6.74e-05     00000 Davidson Iteration
computing hessian-vector products by finite difference
   15      2.60e-04     00000 Davidson Iteration
computing hessian-vector products by finite difference
   16      7.61e-05     00000 Davidson Converged
converged_eigenvalues
   0.2183
   0.3141
Threshold for negative eigenvalues: -1.0e-05
solution was a local minimum (stable)
===================================================
End Test for Internal Stability
===================================================
Timing for Internal Stability: 9064.00s (wall), 71117.21s (cpu)
Our SCF solution is stable!
Timing for Total SCF: 11295.00s (wall), 88689.71s (cpu)
 Total energy in the final basis set =     -423.6798396739
<S^2> =         -0.000000000
    ==================================================
              The end of Object-Oriented SCFman       
    ==================================================

 --------------------------------------------------------------

                    Orbital Energies (a.u.)
 --------------------------------------------------------------

 Alpha MOs
 -- Occupied --
-88.4866  -7.8832  -6.6995  -5.7869  -5.7864  -5.7864  -0.6921  -0.4516
 -0.3500  -0.2806  -0.2806
 -- Virtual --
 -0.0687  -0.0687  -0.0040   0.0040   0.0113   0.0113   0.0317   0.0335
  0.0388   0.0388   0.0525   0.0541   0.0541   0.0572   0.0572   0.0760
  0.0833   0.0851   0.0851   0.0993   0.1234   0.1235   0.1303   0.1303
  0.1353   0.1353   0.1475   0.1506   0.1506   0.1547   0.1547   0.1568
  0.1655   0.1736   0.1736   0.1934   0.1934   0.1946   0.2021   0.2022
  0.2115   0.2246   0.2246   0.2408   0.2408   0.2515   0.2515   0.2538
  0.2538   0.2661   0.2918   0.2918   0.2988   0.2988   0.3044   0.3335
  0.3351   0.3351   0.3411   0.3411   0.3421   0.3422   0.3425   0.3494
  0.3494   0.3603   0.3603   0.3651   0.3651   0.3691   0.3691   0.3793
  0.3793   0.3960   0.4103   0.4201   0.4201   0.4231   0.4231   0.4397
  0.4598   0.4598   0.4826   0.4826   0.4933   0.4933   0.5071   0.5071
  0.5317   0.5591   0.5630   0.5630   0.5664   0.5664   0.5701   0.5701
  0.6125   0.6215   0.6215   0.6530   0.6530   0.6541   0.6541   0.6678
  0.6678   0.6701   0.6702   0.6747   0.6813   0.6813   0.6942   0.6942
  0.7059   0.7059   0.7068   0.7292   0.7322   0.7322   0.7501   0.7501
  0.7635   0.7680   0.7680   0.7908   0.7908   0.8134   0.8348   0.8348
  0.8377   0.8377   0.8898   0.8898   0.9062   0.9191   0.9191   0.9759
  0.9759   0.9894   1.0332   1.0917   1.0917   1.0939   1.0939   1.1609
  1.2213   1.2213   1.2546   1.3503   1.3563   1.3563   1.3925   1.3925
  1.4636   1.4636   1.5155   1.5178   1.5178   1.5384   1.5384   1.5987
  1.6073   1.6073   1.6492   1.6492   1.7856   1.7856   1.8010   1.8897
  1.8897   1.9100   1.9641   2.0151   2.0151   2.0795   2.3772   2.3773
  2.4300   2.4663   2.4663   2.6584   2.6584   2.6760   2.6788   2.6788
  2.7335   2.7335   2.9831   2.9831   3.0218   3.0434   3.0434   3.0520
  3.0520   3.1076   3.1971   3.1971   3.2982   3.3121   3.3121   3.3376
  3.3376   3.3751   3.3751   3.4350   3.4350   3.5285   3.5285   3.5873
  3.5873   3.6975   3.7232   3.8002   3.8002   3.8516   3.8516   3.9171
  3.9490   3.9490   3.9614   3.9614   3.9920   3.9920   4.0160   4.1519
  4.1519   4.2050   4.2631   4.2631   4.3713   4.3713   4.6870   4.8452
  4.8452   5.0105   5.3481   5.3481   5.4263   5.5350   5.5351   5.5414
  5.5414   5.5455   5.5455   5.7781   5.7781   5.7828   5.7829   5.7855
  6.0865   6.0865   6.2242   6.3847   6.3847   6.5152   6.5809   6.6053
  6.6055   6.8743   6.8743   7.5583   7.6581   7.6581   8.1533   8.3117
  8.3117   8.5627   8.5628   8.5889   8.5889   8.6858   8.6858   8.7545
  8.8788   8.8789   9.1822   9.2880   9.2880   9.3170   9.3170   9.4996
  9.4997   9.5730   9.5730   9.6441   9.6441   9.6980   9.6980   9.7668
  9.7668   9.8751  10.1554  10.1554  10.1874  10.1874  10.3208  10.5238
 10.5467  10.5467  10.6282  10.6283  10.6819  10.6819  10.8281  10.8281
 11.1058  11.1058  11.2648  11.2789  11.2789  11.8275  11.8275  12.0009
 12.0009  12.1072  12.1072  12.2124  12.8299  12.9932  12.9932  13.1358
 13.1358  13.2773  13.8148  13.8148  14.8608  14.9660  14.9660  15.7608
 17.2045  17.2045  17.5921  17.5921  17.8448  17.8448  18.1790  18.1790
 18.4597  18.6323  18.6324  18.9812  19.6616  19.6616  20.2934  20.4873
 20.4873  21.2300  21.2300  23.1519  24.9251  24.9251  25.6349  32.4882
 42.5187  63.4764  63.4765  63.6826  63.6826  64.2470  80.0890  93.3118
 95.5508  95.5508

 Beta MOs
 -- Occupied --
-88.4866  -7.8832  -6.6995  -5.7869  -5.7864  -5.7864  -0.6921  -0.4516
 -0.3500  -0.2806  -0.2806
 -- Virtual --
 -0.0687  -0.0687  -0.0040   0.0040   0.0113   0.0113   0.0317   0.0335
  0.0388   0.0388   0.0525   0.0541   0.0541   0.0572   0.0572   0.0760
  0.0833   0.0851   0.0851   0.0993   0.1234   0.1235   0.1303   0.1303
  0.1353   0.1353   0.1475   0.1506   0.1506   0.1547   0.1547   0.1568
  0.1655   0.1736   0.1736   0.1934   0.1934   0.1946   0.2021   0.2022
  0.2115   0.2246   0.2246   0.2408   0.2408   0.2515   0.2515   0.2538
  0.2538   0.2661   0.2918   0.2918   0.2988   0.2988   0.3044   0.3335
  0.3351   0.3351   0.3411   0.3411   0.3421   0.3422   0.3425   0.3494
  0.3494   0.3603   0.3603   0.3651   0.3651   0.3691   0.3691   0.3793
  0.3793   0.3960   0.4103   0.4201   0.4201   0.4231   0.4231   0.4397
  0.4598   0.4598   0.4826   0.4826   0.4933   0.4933   0.5071   0.5071
  0.5317   0.5591   0.5630   0.5630   0.5664   0.5664   0.5701   0.5701
  0.6125   0.6215   0.6215   0.6530   0.6530   0.6541   0.6541   0.6678
  0.6678   0.6701   0.6702   0.6747   0.6813   0.6813   0.6942   0.6942
  0.7059   0.7059   0.7068   0.7292   0.7322   0.7322   0.7501   0.7501
  0.7635   0.7680   0.7680   0.7908   0.7908   0.8134   0.8348   0.8348
  0.8377   0.8377   0.8898   0.8898   0.9062   0.9191   0.9191   0.9759
  0.9759   0.9894   1.0332   1.0917   1.0917   1.0939   1.0939   1.1609
  1.2213   1.2213   1.2546   1.3503   1.3563   1.3563   1.3925   1.3925
  1.4636   1.4636   1.5155   1.5178   1.5178   1.5384   1.5384   1.5987
  1.6073   1.6073   1.6492   1.6492   1.7856   1.7856   1.8010   1.8897
  1.8897   1.9100   1.9641   2.0151   2.0151   2.0795   2.3772   2.3773
  2.4300   2.4663   2.4663   2.6584   2.6584   2.6760   2.6788   2.6788
  2.7335   2.7335   2.9831   2.9831   3.0218   3.0434   3.0434   3.0520
  3.0520   3.1076   3.1971   3.1971   3.2982   3.3121   3.3121   3.3376
  3.3376   3.3751   3.3751   3.4350   3.4350   3.5285   3.5285   3.5873
  3.5873   3.6975   3.7232   3.8002   3.8002   3.8516   3.8516   3.9171
  3.9490   3.9490   3.9614   3.9614   3.9920   3.9920   4.0160   4.1519
  4.1519   4.2050   4.2631   4.2631   4.3713   4.3713   4.6870   4.8452
  4.8452   5.0105   5.3481   5.3481   5.4263   5.5350   5.5351   5.5414
  5.5414   5.5455   5.5455   5.7781   5.7781   5.7828   5.7829   5.7855
  6.0865   6.0865   6.2242   6.3847   6.3847   6.5152   6.5809   6.6053
  6.6055   6.8743   6.8743   7.5583   7.6581   7.6581   8.1533   8.3117
  8.3117   8.5627   8.5628   8.5889   8.5889   8.6858   8.6858   8.7545
  8.8788   8.8789   9.1822   9.2880   9.2880   9.3170   9.3170   9.4996
  9.4997   9.5730   9.5730   9.6441   9.6441   9.6980   9.6980   9.7668
  9.7668   9.8751  10.1554  10.1554  10.1874  10.1874  10.3208  10.5238
 10.5467  10.5467  10.6282  10.6283  10.6819  10.6819  10.8281  10.8281
 11.1058  11.1058  11.2648  11.2789  11.2789  11.8275  11.8275  12.0009
 12.0009  12.1072  12.1072  12.2124  12.8299  12.9932  12.9932  13.1358
 13.1358  13.2773  13.8148  13.8148  14.8608  14.9660  14.9660  15.7608
 17.2045  17.2045  17.5921  17.5921  17.8448  17.8448  18.1790  18.1790
 18.4597  18.6323  18.6324  18.9812  19.6616  19.6616  20.2934  20.4873
 20.4873  21.2300  21.2300  23.1519  24.9251  24.9251  25.6349  32.4882
 42.5187  63.4764  63.4765  63.6826  63.6826  64.2470  80.0890  93.3118
 95.5508  95.5508
 --------------------------------------------------------------

          Ground-State Mulliken Net Atomic Charges

     Atom                 Charge (a.u.)    Spin (a.u.)
  --------------------------------------------------------
      1 B                     2.122770       0.000000
      2 H                     1.316838      -0.000000
      3 S                    -3.439609       0.000000
  --------------------------------------------------------
  Sum of atomic charges =    -0.000000
  Sum of spin   charges =    -0.000000

 -----------------------------------------------------------------
                    Cartesian Multipole Moments
 -----------------------------------------------------------------
    Charge (ESU x 10^10)
                 0.0000
    Dipole Moment (Debye)
         X       0.0000      Y       0.0000      Z       1.3313
       Tot       1.3313
    Quadrupole Moments (Debye-Ang)
        XX     -19.3682     XY       0.0000     YY     -19.3682
        XZ      -0.0000     YZ      -0.0000     ZZ     -19.2440
    Octopole Moments (Debye-Ang^2)
       XXX       0.0000    XXY      -0.0000    XYY       0.0000
       YYY      -0.0000    XXZ      20.1925    XYZ      -0.0000
       YYZ      20.1925    XZZ       0.0000    YZZ       0.0000
       ZZZ      57.4794
    Hexadecapole Moments (Debye-Ang^3)
      XXXX     -26.0265   XXXY      -0.0000   XXYY      -8.6755
      XYYY      -0.0000   YYYY     -26.0265   XXXZ      -0.0000
      XXYZ      -0.0000   XYYZ      -0.0000   YYYZ      -0.0000
      XXZZ     -42.4809   XYZZ       0.0000   YYZZ     -42.4809
      XZZZ      -0.0000   YZZZ      -0.0000   ZZZZ    -217.7726
 -----------------------------------------------------------------
Archival summary:
1\1\n0091.mhg0\SP\ProcedureUnspecified\BasisUnspecified\111\yhljason\SatAug2220:32:322020SatAug2220:32:322020\0\\#,ProcedureUnspecified,BasisUnspecified,\\0,1\S\B,1,1.5995\H,2,1.1692,1,180\\\@

 Total job time:  11579.02s(wall), 90911.20s(cpu) 
 Sat Aug 22 20:32:32 2020

        *************************************************************
        *                                                           *
        *  Thank you very much for using Q-Chem.  Have a nice day.  *
        *                                                           *
        *************************************************************


