                  Welcome to Q-Chem
     A Quantum Leap Into The Future Of Chemistry


 Q-Chem 5.3 (devel), Q-Chem, Inc., Pleasanton, CA (2020)

 Yihan Shao,  Zhengting Gan,  E. Epifanovsky,  A. T. B. Gilbert,  M. Wormit,  
 J. Kussmann,  A. W. Lange,  A. Behn,  Jia Deng,  Xintian Feng,  D. Ghosh,  
 M. Goldey,  P. R. Horn,  L. D. Jacobson,  I. Kaliman,  T. Kus,  A. Landau,  
 Jie Liu,  E. I. Proynov,  R. M. Richard,  R. P. Steele,  E. J. Sundstrom,  
 H. L. Woodcock III,  P. M. Zimmerman,  D. Zuev,  B. Alam,  B. Albrecht,  
 E. Alguire,  S. A. Baeppler,  D. Barton,  Z. Benda,  Y. A. Bernard,  
 E. J. Berquist,  K. B. Bravaya,  H. Burton,  K. Carter-Fenk,  D. Casanova,  
 Chun-Min Chang,  Yunqing Chen,  A. Chien,  K. D. Closser,  M. P. Coons,  
 S. Coriani,  S. Dasgupta,  A. L. Dempwolff,  M. Diedenhofen,  Hainam Do,  
 R. G. Edgar,  Po-Tung Fang,  S. Faraji,  S. Fatehi,  Qingguo Feng,  
 J. Fosso-Tande,  J. Gayvert,  Qinghui Ge,  A. Ghysels,  G. Gidofalvi,  
 J. Gomes,  J. Gonthier,  A. Gunina,  D. Hait,  M. W. D. Hanson-Heine,  
 P. H. P. Harbach,  A. W. Hauser,  M. F. Herbst,  J. E. Herr,  
 E. G. Hohenstein,  Z. C. Holden,  Kerwin Hui,  B. C. Huynh,  T.-C. Jagau,  
 Hyunjun Ji,  B. Kaduk,  K. Khistyaev,  Jaehoon Kim,  P. Klunzinger,  K. Koh,  
 D. Kosenkov,  L. Koulias,  T. Kowalczyk,  C. M. Krauter,  A. Kunitsa,  
 Ka Un Lao,  A. Laurent,  K. V. Lawler,  Joonho Lee,  D. Lefrancois,  
 S. Lehtola,  D. S. Levine,  Yi-Pei Li,  You-Sheng Lin,  Fenglai Liu,  
 Kuan-Yu Liu,  E. Livshits,  M. Loipersberger,  A. Luenser,  P. Manohar,  
 E. Mansoor,  S. F. Manzer,  Shan-Ping Mao,  Yuezhi Mao,  N. Mardirossian,  
 A. V. Marenich,  T. Markovich,  L. A. Martinez-Martinez,  S. A. Maurer,  
 N. J. Mayhall,  S. C. McKenzie,  J.-M. Mewes,  P. Morgante,  A. F. Morrison,  
 J. W. Mullinax,  K. Nanda,  T. S. Nguyen-Beck,  R. Olivares-Amaya,  
 K. J. Oosterbaan,  J. A. Parkhill,  S. K. Paul,  F. Pavosevic,  Zheng Pei,  
 T. M. Perrine,  F. Plasser,  P. Pokhilko,  S. Prager,  A. Prociuk,  
 E. Ramos,  B. Rana,  D. R. Rehn,  F. Rob,  M. Scheurer,  M. Schneider,  
 N. Sergueev,  S. M. Sharada,  S. Sharma,  D. W. Small,  T. Stauch,  
 C. J. Stein,  T. Stein,  Yu-Chuan Su,  S. P. Veccham,  Zhen Tao,  
 A. J. W. Thom,  A. Tkatchenko,  T. Tsuchimochi,  N. M. Tubman,  L. Vogt,  
 M. L. Vidal,  O. Vydrov,  M. A. Watson,  J. Wenzel,  M. de Wergifosse,  
 T. A. Wesolowski,  A. White,  J. Witte,  A. Yamada,  Jun Yang,  K. Yao,  
 S. Yeganeh,  S. R. Yost,  Zhi-Qiang You,  A. Zech,  Igor Ying Zhang,  
 Xing Zhang,  Yan Zhao,  Ying Zhu,  B. R. Brooks,  G. K. L. Chan,  
 C. J. Cramer,  M. S. Gordon,  W. J. Hehre,  A. Klamt,  M. W. Schmidt,  
 C. D. Sherrill,  D. G. Truhlar,  A. Aspuru-Guzik,  R. Baer,  A. T. Bell,  
 N. A. Besley,  Jeng-Da Chai,  A. E. DePrince, III,  R. A. DiStasio Jr.,  
 A. Dreuw,  B. D. Dunietz,  T. R. Furlani,  Chao-Ping Hsu,  Yousung Jung,  
 Jing Kong,  D. S. Lambrecht,  WanZhen Liang,  C. Ochsenfeld,  
 V. A. Rassolov,  L. V. Slipchenko,  J. E. Subotnik,  T. Van Voorhis,  
 J. M. Herbert,  A. I. Krylov,  P. M. W. Gill,  M. Head-Gordon

 Contributors to earlier versions of Q-Chem not listed above: 
 R. D. Adamson,  B. Austin,  J. Baker,  G. J. O. Beran,  K. Brandhorst,  
 S. T. Brown,  E. F. C. Byrd,  A. K. Chakraborty,  C.-L. Cheng,  
 Siu Hung Chien,  D. M. Chipman,  D. L. Crittenden,  H. Dachsel,  
 R. J. Doerksen,  A. D. Dutoi,  L. Fusti-Molnar,  W. A. Goddard III,  
 A. Golubeva-Zadorozhnaya,  S. R. Gwaltney,  G. Hawkins,  A. Heyden,  
 S. Hirata,  G. Kedziora,  F. J. Keil,  C. Kelley,  Jihan Kim,  R. A. King,  
 R. Z. Khaliullin,  P. P. Korambath,  W. Kurlancheek,  A. M. Lee,  M. S. Lee,  
 S. V. Levchenko,  Ching Yeh Lin,  D. Liotard,  R. C. Lochan,  I. Lotan,  
 P. E. Maslen,  N. Nair,  D. P. O'Neill,  D. Neuhauser,  E. Neuscamman,  
 C. M. Oana,  R. Olson,  B. Peters,  R. Peverati,  P. A. Pieniazek,  
 Y. M. Rhee,  J. Ritchie,  M. A. Rohrdanz,  E. Rosta,  N. J. Russ,  
 H. F. Schaefer III,  N. E. Schultz,  N. Shenvi,  A. C. Simmonett,  A. Sodt,  
 D. Stuck,  K. S. Thanthiriwatte,  V. Vanovschi,  Tao Wang,  A. Warshel,  
 C. F. Williams,  Q. Wu,  X. Xu,  W. Zhang

 Please cite Q-Chem as follows:
 Y. Shao et al., Mol. Phys. 113, 184-215 (2015)
 DOI: 10.1080/00268976.2014.952696

 Q-Chem 5.3.0 for Intel X86 EM64T Linux

 Parts of Q-Chem use Armadillo 9.800.1 (Horizon Scraper).
 http://arma.sourceforge.net/

 Q-Chem begins on Sat Aug 22 17:30:40 2020  

n0067.mhg0
Host: 0

     Scratch files written to /local/scratch/users/yhljason/HBS_SCAN0_aug-pc-4.inp20200822092051//
Processing $rem in /clusterfs/mhg/diptarka/qchem_transmom//config/preferences:
Processing $rem in /global/home/users/yhljason/.qchemrc:

Checking the input file for inconsistencies... 	...done.

--------------------------------------------------------------
User input:
--------------------------------------------------------------
$molecule
0 1
B1      0.0000  0.0000  0.0000
H2      0.0000  0.0000  1.1692
S3      0.0000  0.0000  -1.5995
$end

$rem
jobtype sp
method SCAN0
xc_grid 000099000590
basis aug-pc-4
max_scf_cycles 200
thresh 14
scf_convergence 8
scf_algorithm gdm
symmetry false
sym_ignore true
unrestricted true
gen_scfman true
internal_stability_iter 15
internal_stability_davidson_iter 200
mem_total 64000
mem_static 1500
n_frozen_core 0
$end


--------------------------------------------------------------
 ----------------------------------------------------------------
             Standard Nuclear Orientation (Angstroms)
    I     Atom           X                Y                Z
 ----------------------------------------------------------------
    1      B       0.0000000000     0.0000000000     0.0000000000
    2      H       0.0000000000     0.0000000000     1.1692000000
    3      S       0.0000000000     0.0000000000    -1.5995000000
 ----------------------------------------------------------------
 Nuclear Repulsion Energy =          31.78817439 hartrees
 There are       11 alpha and       11 beta electrons
 Requested basis set is aug-pc-4
 There are 88 shells and 374 basis functions

 Total QAlloc Memory Limit  64000 MB
 Mega-Array Size      1467 MB
 MEM_STATIC part      1500 MB

                       Distance Matrix (Angstroms)
             B (  1)   H (  2)
   H (  2)  1.169200
   S (  3)  1.599500  2.768700

 A cutoff of  1.0D-14 yielded   3857 shell pairs
 There are     70403 function pairs (    133226 Cartesian)
 Smallest overlap matrix eigenvalue = 5.14E-07
 Linear dependence detected in AO basis
 Tighter screening thresholds may be required for diffuse basis sets
 Use S2THRESH > 14 and THRESH = 14 in case of SCF convergence issues
 Number of orthogonalized atomic orbitals = 373
 Maximum deviation from orthogonality = 1.136E-10

 Scale SEOQF with 1.000000e-01/1.000000e-01/1.000000e-01

 Standard Electronic Orientation quadrupole field applied
 Nucleus-field energy     =    -0.0000000045 hartrees
 Guess from superposition of atomic densities
 Warning:  Energy on first SCF cycle will be non-variational
 SAD guess density has 22.000000 electrons

 -----------------------------------------------------------------------
  General SCF calculation program by
  Eric Jon Sundstrom, Paul Horn, Yuezhi Mao, Dmitri Zuev, Alec White,
  David Stuck, Shaama M.S., Shane Yost, Joonho Lee, David Small,
  Daniel Levine, Susi Lehtola, Hugh Burton, Evgeny Epifanovsky,
  Bang C. Huynh
 -----------------------------------------------------------------------
 Exchange:     0.2500 Hartree-Fock + 0.7500 SCAN
 Correlation:  1.0000 SCAN
 Using Euler-Maclaurin-Lebedev (99,590) quadrature formula
Running Object-Oriented UKS (UHF)
performing a single roothaan step with Fock from read density so that orbitals are available to all algorithms
energy of the guess density (C=0) -423.792771248087
We will preform up to 15 macro iterations over saddle points until a stable solution is found
Energy prior to optimization (guess energy) = -423.661142920445
Begin Timing: Total SCF Calculation
Begin Timing: SCF Single Stationary Point Calculation
begin iterations for algorithm: GDM          
the SCF tolerance is set to 1.00e-08
    1    -423.6611429204      3.12e-02     00000  Normal BFGS step
    2    -423.6664162582      3.57e-02     00000  Normal BFGS step
    3    -423.6737272927      1.75e-02     00000  Normal BFGS step
    4    -423.6731068408      2.00e-02     00000 Line search: overstep
    5    -423.6742329700      2.98e-03     00000  Normal BFGS step
    6    -423.6742690210      6.55e-05     00000  Normal BFGS step
    7    -423.6742691676      1.91e-05     00000  Normal BFGS step
    8    -423.6742691719      3.66e-06     00000  Normal BFGS step
    9    -423.6742691720      1.53e-07     00000  Normal BFGS step
   10    -423.6742691720      2.94e-08     00000  Normal BFGS step
   11    -423.6742691720      7.80e-09     00000 Convergence criterion met
Timing for Single Stationary Point: 1607.00s (wall), 12682.05s (cpu)
Begin Timing: Stability
===================================================
Beginning Test for Internal Stability
===================================================
generating davidson guess vectors based on koopmans excitations
 Warning: Hessian-vector products not implemented
 Finite difference Hessian-vector products will be used.
computing hessian-vector products by finite difference
    1      6.66e-01     00000 Davidson Iteration
computing hessian-vector products by finite difference
    2      6.16e-01     00000 Davidson Iteration
computing hessian-vector products by finite difference
    3      4.16e-02     00000 Davidson Iteration
computing hessian-vector products by finite difference
    4      2.04e-02     00000 Davidson Iteration
computing hessian-vector products by finite difference
    5      5.27e-03     00000 Davidson Iteration
computing hessian-vector products by finite difference
    6      5.00e-03     00000 Davidson Iteration
computing hessian-vector products by finite difference
    7      1.06e-02     00000 Davidson Iteration
computing hessian-vector products by finite difference
    8      2.06e-03     00000 Davidson Iteration
computing hessian-vector products by finite difference
    9      1.30e-03     00000 Davidson Iteration
computing hessian-vector products by finite difference
   10      2.14e-04     00000 Davidson Iteration
computing hessian-vector products by finite difference
   11      7.05e-05     00000 Davidson Iteration
computing hessian-vector products by finite difference
   12      3.23e-05     00000 Davidson Converged
converged_eigenvalues
   0.2544
   0.1968
Threshold for negative eigenvalues: -1.0e-05
solution was a local minimum (stable)
===================================================
End Test for Internal Stability
===================================================
Timing for Internal Stability: 8683.00s (wall), 68254.51s (cpu)
Our SCF solution is stable!
Timing for Total SCF: 10290.00s (wall), 80936.66s (cpu)
 Total energy in the final basis set =     -423.6742691720
<S^2> =          0.000000000
    ==================================================
              The end of Object-Oriented SCFman       
    ==================================================

 --------------------------------------------------------------

                    Orbital Energies (a.u.)
 --------------------------------------------------------------

 Alpha MOs
 -- Occupied --
-89.3590  -8.1257  -6.9379  -6.0052  -6.0049  -6.0049  -0.7695  -0.5122
 -0.4037  -0.3194  -0.3194
 -- Virtual --
 -0.0402  -0.0402   0.0100   0.0161   0.0186   0.0186   0.0422   0.0475
  0.0486   0.0486   0.0666   0.0676   0.0676   0.0693   0.0693   0.0895
  0.0955   0.0955   0.0992   0.1137   0.1364   0.1364   0.1457   0.1457
  0.1486   0.1486   0.1599   0.1599   0.1642   0.1683   0.1714   0.1714
  0.1772   0.1883   0.1883   0.2104   0.2104   0.2173   0.2183   0.2183
  0.2349   0.2370   0.2370   0.2536   0.2536   0.2622   0.2622   0.2709
  0.2709   0.2792   0.3107   0.3107   0.3178   0.3259   0.3259   0.3475
  0.3475   0.3496   0.3496   0.3533   0.3599   0.3599   0.3684   0.3684
  0.3726   0.3728   0.3728   0.3911   0.3911   0.3922   0.3922   0.3998
  0.3998   0.4157   0.4334   0.4436   0.4436   0.4589   0.4590   0.4746
  0.4845   0.4845   0.5295   0.5295   0.5303   0.5303   0.5530   0.5530
  0.5774   0.6005   0.6005   0.6117   0.6117   0.6165   0.6239   0.6239
  0.6546   0.6776   0.6776   0.7021   0.7021   0.7083   0.7083   0.7352
  0.7369   0.7370   0.7371   0.7371   0.7473   0.7473   0.7514   0.7514
  0.7654   0.7654   0.7732   0.7760   0.7991   0.7991   0.8064   0.8064
  0.8266   0.8266   0.8309   0.8534   0.8534   0.8812   0.8907   0.8908
  0.9047   0.9047   0.9577   0.9577   0.9715   0.9960   0.9960   1.0596
  1.0596   1.0621   1.1034   1.1680   1.1680   1.1782   1.1782   1.2472
  1.2493   1.2493   1.3156   1.4383   1.4383   1.4494   1.4494   1.4757
  1.5119   1.5119   1.5477   1.5477   1.5749   1.6350   1.6350   1.6640
  1.6640   1.6943   1.6943   1.6995   1.8171   1.8171   1.8673   1.9260
  1.9260   2.0041   2.0300   2.0814   2.0814   2.1622   2.3750   2.3750
  2.5021   2.5021   2.5705   2.6808   2.6808   2.7201   2.7201   2.7262
  2.7270   2.7270   3.0072   3.0073   3.0735   3.0735   3.0977   3.1341
  3.1341   3.2101   3.2165   3.2166   3.3246   3.3248   3.3430   3.3430
  3.3623   3.4083   3.4083   3.4183   3.4183   3.5443   3.5443   3.6458
  3.6458   3.7565   3.7898   3.8174   3.8174   3.8930   3.8930   3.9800
  3.9892   3.9892   4.0205   4.0205   4.0434   4.0434   4.0801   4.1369
  4.1369   4.2869   4.3185   4.3185   4.3440   4.3440   4.7558   4.8711
  4.8711   5.0745   5.3199   5.3201   5.4686   5.4686   5.4699   5.4701
  5.5232   5.5726   5.5726   5.7245   5.7245   5.8721   5.8721   5.8772
  6.0925   6.0925   6.3138   6.4316   6.4316   6.5427   6.5685   6.5688
  6.6196   6.8756   6.8756   7.6575   7.6958   7.6958   8.2426   8.4984
  8.4984   8.5051   8.5053   8.5451   8.5451   8.7219   8.8394   8.8394
  8.9551   8.9551   9.0292   9.0292   9.2993   9.3750   9.3750   9.5293
  9.5297   9.5888   9.5888   9.6018   9.6018   9.6925   9.6925   9.7758
  9.7760   9.9561  10.1590  10.1595  10.1897  10.1897  10.4485  10.5583
 10.5583  10.5759  10.5766  10.6946  10.7469  10.7469  10.7716  10.7716
 11.1279  11.1279  11.2910  11.2910  11.5593  11.9578  11.9578  12.1074
 12.1075  12.1421  12.1882  12.1882  12.6767  12.6767  12.8104  13.1801
 13.1801  13.3158  13.3992  13.3993  15.0445  15.0665  15.0665  16.6896
 17.1899  17.1899  17.3581  17.3581  17.3735  17.3735  17.7425  17.7425
 18.4175  18.4175  19.1042  19.4606  20.1351  20.1351  20.6032  20.6676
 20.6677  21.3553  21.3553  23.3962  24.1132  24.1132  25.5265  32.5553
 42.0115  63.4680  63.4680  63.6728  63.6728  64.2360  79.7491  92.7564
 92.7564  93.7478

 Beta MOs
 -- Occupied --
-89.3590  -8.1257  -6.9379  -6.0052  -6.0049  -6.0049  -0.7695  -0.5122
 -0.4037  -0.3194  -0.3194
 -- Virtual --
 -0.0402  -0.0402   0.0100   0.0161   0.0186   0.0186   0.0422   0.0475
  0.0486   0.0486   0.0666   0.0676   0.0676   0.0693   0.0693   0.0895
  0.0955   0.0955   0.0992   0.1137   0.1364   0.1364   0.1457   0.1457
  0.1486   0.1486   0.1599   0.1599   0.1642   0.1683   0.1714   0.1714
  0.1772   0.1883   0.1883   0.2104   0.2104   0.2173   0.2183   0.2183
  0.2349   0.2370   0.2370   0.2536   0.2536   0.2622   0.2622   0.2709
  0.2709   0.2792   0.3107   0.3107   0.3178   0.3259   0.3259   0.3475
  0.3475   0.3496   0.3496   0.3533   0.3599   0.3599   0.3684   0.3684
  0.3726   0.3728   0.3728   0.3911   0.3911   0.3922   0.3922   0.3998
  0.3998   0.4157   0.4334   0.4436   0.4436   0.4589   0.4590   0.4746
  0.4845   0.4845   0.5295   0.5295   0.5303   0.5303   0.5530   0.5530
  0.5774   0.6005   0.6005   0.6117   0.6117   0.6165   0.6239   0.6239
  0.6546   0.6776   0.6776   0.7021   0.7021   0.7083   0.7083   0.7352
  0.7369   0.7370   0.7371   0.7371   0.7473   0.7473   0.7514   0.7514
  0.7654   0.7654   0.7732   0.7760   0.7991   0.7991   0.8064   0.8064
  0.8266   0.8266   0.8309   0.8534   0.8534   0.8812   0.8907   0.8908
  0.9047   0.9047   0.9577   0.9577   0.9715   0.9960   0.9960   1.0596
  1.0596   1.0621   1.1034   1.1680   1.1680   1.1782   1.1782   1.2472
  1.2493   1.2493   1.3156   1.4383   1.4383   1.4494   1.4494   1.4757
  1.5119   1.5119   1.5477   1.5477   1.5749   1.6350   1.6350   1.6640
  1.6640   1.6943   1.6943   1.6995   1.8171   1.8171   1.8673   1.9260
  1.9260   2.0041   2.0300   2.0814   2.0814   2.1622   2.3750   2.3750
  2.5021   2.5021   2.5705   2.6808   2.6808   2.7201   2.7201   2.7262
  2.7270   2.7270   3.0072   3.0073   3.0735   3.0735   3.0977   3.1341
  3.1341   3.2101   3.2165   3.2166   3.3246   3.3248   3.3430   3.3430
  3.3623   3.4083   3.4083   3.4183   3.4183   3.5443   3.5443   3.6458
  3.6458   3.7565   3.7898   3.8174   3.8174   3.8930   3.8930   3.9800
  3.9892   3.9892   4.0205   4.0205   4.0434   4.0434   4.0801   4.1369
  4.1369   4.2869   4.3185   4.3185   4.3440   4.3440   4.7558   4.8711
  4.8711   5.0745   5.3199   5.3201   5.4686   5.4686   5.4699   5.4701
  5.5232   5.5726   5.5726   5.7245   5.7245   5.8721   5.8721   5.8772
  6.0925   6.0925   6.3138   6.4316   6.4316   6.5427   6.5685   6.5688
  6.6196   6.8756   6.8756   7.6575   7.6958   7.6958   8.2426   8.4984
  8.4984   8.5051   8.5053   8.5451   8.5451   8.7219   8.8394   8.8394
  8.9551   8.9551   9.0292   9.0292   9.2993   9.3750   9.3750   9.5293
  9.5297   9.5888   9.5888   9.6018   9.6018   9.6925   9.6925   9.7758
  9.7760   9.9561  10.1590  10.1595  10.1897  10.1897  10.4485  10.5583
 10.5583  10.5759  10.5766  10.6946  10.7469  10.7469  10.7716  10.7716
 11.1279  11.1279  11.2910  11.2910  11.5593  11.9578  11.9578  12.1074
 12.1075  12.1421  12.1882  12.1882  12.6767  12.6767  12.8104  13.1801
 13.1801  13.3158  13.3992  13.3993  15.0445  15.0665  15.0665  16.6896
 17.1899  17.1899  17.3581  17.3581  17.3735  17.3735  17.7425  17.7425
 18.4175  18.4175  19.1042  19.4606  20.1351  20.1351  20.6032  20.6676
 20.6677  21.3553  21.3553  23.3962  24.1132  24.1132  25.5265  32.5553
 42.0115  63.4680  63.4680  63.6728  63.6728  64.2360  79.7491  92.7564
 92.7564  93.7478
 --------------------------------------------------------------

          Ground-State Mulliken Net Atomic Charges

     Atom                 Charge (a.u.)    Spin (a.u.)
  --------------------------------------------------------
      1 B                     0.998238       0.000000
      2 H                     0.082679      -0.000000
      3 S                    -1.080917      -0.000000
  --------------------------------------------------------
  Sum of atomic charges =    -0.000000
  Sum of spin   charges =    -0.000000

 -----------------------------------------------------------------
                    Cartesian Multipole Moments
 -----------------------------------------------------------------
    Charge (ESU x 10^10)
                -0.0000
    Dipole Moment (Debye)
         X      -0.0000      Y       0.0000      Z       1.5353
       Tot       1.5353
    Quadrupole Moments (Debye-Ang)
        XX     -19.7309     XY       0.0000     YY     -19.7309
        XZ      -0.0000     YZ      -0.0000     ZZ     -19.4255
    Octopole Moments (Debye-Ang^2)
       XXX      -0.0000    XXY       0.0000    XYY      -0.0000
       YYY       0.0000    XXZ      20.6099    XYZ      -0.0000
       YYZ      20.6099    XZZ      -0.0000    YZZ       0.0000
       ZZZ      58.4842
    Hexadecapole Moments (Debye-Ang^3)
      XXXX     -27.2895   XXXY       0.0000   XXYY      -9.0965
      XYYY       0.0000   YYYY     -27.2895   XXXZ      -0.0000
      XXYZ      -0.0000   XYYZ       0.0000   YYYZ      -0.0000
      XXZZ     -43.3573   XYZZ       0.0000   YYZZ     -43.3573
      XZZZ      -0.0000   YZZZ       0.0000   ZZZZ    -220.1923
 -----------------------------------------------------------------
Archival summary:
1\1\n0067.mhg0\SP\ProcedureUnspecified\BasisUnspecified\111\yhljason\SatAug2220:27:112020SatAug2220:27:112020\0\\#,ProcedureUnspecified,BasisUnspecified,\\0,1\S\B,1,1.5995\H,2,1.1692,1,180\\\@

 Total job time:  10591.36s(wall), 83302.66s(cpu) 
 Sat Aug 22 20:27:11 2020

        *************************************************************
        *                                                           *
        *  Thank you very much for using Q-Chem.  Have a nice day.  *
        *                                                           *
        *************************************************************


