                  Welcome to Q-Chem
     A Quantum Leap Into The Future Of Chemistry


 Q-Chem 5.3 (devel), Q-Chem, Inc., Pleasanton, CA (2020)

 Yihan Shao,  Zhengting Gan,  E. Epifanovsky,  A. T. B. Gilbert,  M. Wormit,  
 J. Kussmann,  A. W. Lange,  A. Behn,  Jia Deng,  Xintian Feng,  D. Ghosh,  
 M. Goldey,  P. R. Horn,  L. D. Jacobson,  I. Kaliman,  T. Kus,  A. Landau,  
 Jie Liu,  E. I. Proynov,  R. M. Richard,  R. P. Steele,  E. J. Sundstrom,  
 H. L. Woodcock III,  P. M. Zimmerman,  D. Zuev,  B. Alam,  B. Albrecht,  
 E. Alguire,  S. A. Baeppler,  D. Barton,  Z. Benda,  Y. A. Bernard,  
 E. J. Berquist,  K. B. Bravaya,  H. Burton,  K. Carter-Fenk,  D. Casanova,  
 Chun-Min Chang,  Yunqing Chen,  A. Chien,  K. D. Closser,  M. P. Coons,  
 S. Coriani,  S. Dasgupta,  A. L. Dempwolff,  M. Diedenhofen,  Hainam Do,  
 R. G. Edgar,  Po-Tung Fang,  S. Faraji,  S. Fatehi,  Qingguo Feng,  
 J. Fosso-Tande,  J. Gayvert,  Qinghui Ge,  A. Ghysels,  G. Gidofalvi,  
 J. Gomes,  J. Gonthier,  A. Gunina,  D. Hait,  M. W. D. Hanson-Heine,  
 P. H. P. Harbach,  A. W. Hauser,  M. F. Herbst,  J. E. Herr,  
 E. G. Hohenstein,  Z. C. Holden,  Kerwin Hui,  B. C. Huynh,  T.-C. Jagau,  
 Hyunjun Ji,  B. Kaduk,  K. Khistyaev,  Jaehoon Kim,  P. Klunzinger,  K. Koh,  
 D. Kosenkov,  L. Koulias,  T. Kowalczyk,  C. M. Krauter,  A. Kunitsa,  
 Ka Un Lao,  A. Laurent,  K. V. Lawler,  Joonho Lee,  D. Lefrancois,  
 S. Lehtola,  D. S. Levine,  Yi-Pei Li,  You-Sheng Lin,  Fenglai Liu,  
 Kuan-Yu Liu,  E. Livshits,  M. Loipersberger,  A. Luenser,  P. Manohar,  
 E. Mansoor,  S. F. Manzer,  Shan-Ping Mao,  Yuezhi Mao,  N. Mardirossian,  
 A. V. Marenich,  T. Markovich,  L. A. Martinez-Martinez,  S. A. Maurer,  
 N. J. Mayhall,  S. C. McKenzie,  J.-M. Mewes,  P. Morgante,  A. F. Morrison,  
 J. W. Mullinax,  K. Nanda,  T. S. Nguyen-Beck,  R. Olivares-Amaya,  
 K. J. Oosterbaan,  J. A. Parkhill,  S. K. Paul,  F. Pavosevic,  Zheng Pei,  
 T. M. Perrine,  F. Plasser,  P. Pokhilko,  S. Prager,  A. Prociuk,  
 E. Ramos,  B. Rana,  D. R. Rehn,  F. Rob,  M. Scheurer,  M. Schneider,  
 N. Sergueev,  S. M. Sharada,  S. Sharma,  D. W. Small,  T. Stauch,  
 C. J. Stein,  T. Stein,  Yu-Chuan Su,  S. P. Veccham,  Zhen Tao,  
 A. J. W. Thom,  A. Tkatchenko,  T. Tsuchimochi,  N. M. Tubman,  L. Vogt,  
 M. L. Vidal,  O. Vydrov,  M. A. Watson,  J. Wenzel,  M. de Wergifosse,  
 T. A. Wesolowski,  A. White,  J. Witte,  A. Yamada,  Jun Yang,  K. Yao,  
 S. Yeganeh,  S. R. Yost,  Zhi-Qiang You,  A. Zech,  Igor Ying Zhang,  
 Xing Zhang,  Yan Zhao,  Ying Zhu,  B. R. Brooks,  G. K. L. Chan,  
 C. J. Cramer,  M. S. Gordon,  W. J. Hehre,  A. Klamt,  M. W. Schmidt,  
 C. D. Sherrill,  D. G. Truhlar,  A. Aspuru-Guzik,  R. Baer,  A. T. Bell,  
 N. A. Besley,  Jeng-Da Chai,  A. E. DePrince, III,  R. A. DiStasio Jr.,  
 A. Dreuw,  B. D. Dunietz,  T. R. Furlani,  Chao-Ping Hsu,  Yousung Jung,  
 Jing Kong,  D. S. Lambrecht,  WanZhen Liang,  C. Ochsenfeld,  
 V. A. Rassolov,  L. V. Slipchenko,  J. E. Subotnik,  T. Van Voorhis,  
 J. M. Herbert,  A. I. Krylov,  P. M. W. Gill,  M. Head-Gordon

 Contributors to earlier versions of Q-Chem not listed above: 
 R. D. Adamson,  B. Austin,  J. Baker,  G. J. O. Beran,  K. Brandhorst,  
 S. T. Brown,  E. F. C. Byrd,  A. K. Chakraborty,  C.-L. Cheng,  
 Siu Hung Chien,  D. M. Chipman,  D. L. Crittenden,  H. Dachsel,  
 R. J. Doerksen,  A. D. Dutoi,  L. Fusti-Molnar,  W. A. Goddard III,  
 A. Golubeva-Zadorozhnaya,  S. R. Gwaltney,  G. Hawkins,  A. Heyden,  
 S. Hirata,  G. Kedziora,  F. J. Keil,  C. Kelley,  Jihan Kim,  R. A. King,  
 R. Z. Khaliullin,  P. P. Korambath,  W. Kurlancheek,  A. M. Lee,  M. S. Lee,  
 S. V. Levchenko,  Ching Yeh Lin,  D. Liotard,  R. C. Lochan,  I. Lotan,  
 P. E. Maslen,  N. Nair,  D. P. O'Neill,  D. Neuhauser,  E. Neuscamman,  
 C. M. Oana,  R. Olson,  B. Peters,  R. Peverati,  P. A. Pieniazek,  
 Y. M. Rhee,  J. Ritchie,  M. A. Rohrdanz,  E. Rosta,  N. J. Russ,  
 H. F. Schaefer III,  N. E. Schultz,  N. Shenvi,  A. C. Simmonett,  A. Sodt,  
 D. Stuck,  K. S. Thanthiriwatte,  V. Vanovschi,  Tao Wang,  A. Warshel,  
 C. F. Williams,  Q. Wu,  X. Xu,  W. Zhang

 Please cite Q-Chem as follows:
 Y. Shao et al., Mol. Phys. 113, 184-215 (2015)
 DOI: 10.1080/00268976.2014.952696

 Q-Chem 5.3.0 for Intel X86 EM64T Linux

 Parts of Q-Chem use Armadillo 9.800.1 (Horizon Scraper).
 http://arma.sourceforge.net/

 Q-Chem begins on Sat Aug 22 17:57:52 2020  

n0053.mhg0
Host: 0

     Scratch files written to /local/scratch/users/yhljason/HCCCl_BLYP_aug-pc-4.inp20200822092054//
Processing $rem in /clusterfs/mhg/diptarka/qchem_transmom//config/preferences:
Processing $rem in /global/home/users/yhljason/.qchemrc:

Checking the input file for inconsistencies... 	...done.

--------------------------------------------------------------
User input:
--------------------------------------------------------------
$molecule
0 1
C1      0.0000  0.0000  -1.8149
C2      0.0000  0.0000  -0.6116
Cl3     0.0000  0.0000  1.0252
H4      0.0000  0.0000  -2.8699
$end

$rem
jobtype sp
method BLYP
xc_grid 000099000590
basis aug-pc-4
max_scf_cycles 200
thresh 14
scf_convergence 8
scf_algorithm gdm
symmetry false
sym_ignore true
unrestricted true
gen_scfman true
internal_stability_iter 15
internal_stability_davidson_iter 200
mem_total 64000
mem_static 1500
n_frozen_core 0
$end


--------------------------------------------------------------
 ----------------------------------------------------------------
             Standard Nuclear Orientation (Angstroms)
    I     Atom           X                Y                Z
 ----------------------------------------------------------------
    1      C       0.0000000000     0.0000000000    -1.8149000000
    2      C       0.0000000000     0.0000000000    -0.6116000000
    3      Cl      0.0000000000     0.0000000000     1.0252000000
    4      H       0.0000000000     0.0000000000    -2.8699000000
 ----------------------------------------------------------------
 Nuclear Repulsion Energy =          74.53841897 hartrees
 There are       15 alpha and       15 beta electrons
 Requested basis set is aug-pc-4
 There are 121 shells and 519 basis functions

 Total QAlloc Memory Limit  64000 MB
 Mega-Array Size      1467 MB
 MEM_STATIC part      1500 MB

                       Distance Matrix (Angstroms)
             C (  1)   C (  2)   Cl(  3)
   C (  2)  1.203300
   Cl(  3)  2.840100  1.636800
   H (  4)  1.055000  2.258300  3.895100

 A cutoff of  1.0D-14 yielded   7137 shell pairs
 There are    132677 function pairs (    253157 Cartesian)
 Smallest overlap matrix eigenvalue = 3.93E-08
 Linear dependence detected in AO basis
 Tighter screening thresholds may be required for diffuse basis sets
 Use S2THRESH > 14 and THRESH = 14 in case of SCF convergence issues
 Number of orthogonalized atomic orbitals = 512
 Maximum deviation from orthogonality = 1.077E-10

 Scale SEOQF with 1.000000e-01/1.000000e-01/1.000000e-01

 Standard Electronic Orientation quadrupole field applied
 Nucleus-field energy     =    -0.0000000052 hartrees
 Guess from superposition of atomic densities
 Warning:  Energy on first SCF cycle will be non-variational
 SAD guess density has 30.000000 electrons

 -----------------------------------------------------------------------
  General SCF calculation program by
  Eric Jon Sundstrom, Paul Horn, Yuezhi Mao, Dmitri Zuev, Alec White,
  David Stuck, Shaama M.S., Shane Yost, Joonho Lee, David Small,
  Daniel Levine, Susi Lehtola, Hugh Burton, Evgeny Epifanovsky,
  Bang C. Huynh
 -----------------------------------------------------------------------
 Exchange:  B88      Correlation:  LYP
 Using Euler-Maclaurin-Lebedev (99,590) quadrature formula
Running Object-Oriented UKS (UHF)
performing a single roothaan step with Fock from read density so that orbitals are available to all algorithms
energy of the guess density (C=0) -537.375552630346
We will preform up to 15 macro iterations over saddle points until a stable solution is found
Energy prior to optimization (guess energy) = -536.826330357820
Begin Timing: Total SCF Calculation
Begin Timing: SCF Single Stationary Point Calculation
begin iterations for algorithm: GDM          
the SCF tolerance is set to 1.00e-08
    1    -536.8263303578      1.40e-01     00000  Descent step
    2    -536.9264444798      1.82e-01     00000  Normal BFGS step
    3    -536.8970067148      2.22e-01     00000 Line search: overstep
    4    -536.9564968477      4.75e-02     00000  Normal BFGS step
    5    -536.9571029767      3.84e-02     00000  Normal BFGS step
    6    -536.9659233396      5.51e-03     00000  Normal BFGS step
    7    -536.9660518437      5.23e-03     00000  Normal BFGS step
    8    -536.9663718515      2.25e-04     00000  Normal BFGS step
    9    -536.9663719550      2.14e-04     00000  Normal BFGS step
   10    -536.9663722555      9.06e-06     00000  Normal BFGS step
   11    -536.9663722574      4.71e-06     00000  Normal BFGS step
   12    -536.9663722578      1.17e-07     00000  Normal BFGS step
   13    -536.9663722578      1.31e-07     00000  Normal BFGS step
   14    -536.9663722578      2.46e-07     00000  Normal BFGS step
   15    -536.9663722578      1.10e-07     00000  Normal BFGS step
   16    -536.9663722578      1.05e-07     00000  Normal BFGS step
   17    -536.9663722578      1.87e-08     00000  Normal BFGS step
   18    -536.9663722578      4.18e-09     00000 Convergence criterion met
Timing for Single Stationary Point: 6687.00s (wall), 52772.42s (cpu)
Begin Timing: Stability
===================================================
Beginning Test for Internal Stability
===================================================
generating davidson guess vectors based on koopmans excitations
 Warning: Hessian-vector products not implemented
 Finite difference Hessian-vector products will be used.
computing hessian-vector products by finite difference
    1      6.88e-01     00000 Davidson Iteration
computing hessian-vector products by finite difference
    2      4.76e-01     00000 Davidson Iteration
computing hessian-vector products by finite difference
    3      1.40e-01     00000 Davidson Iteration
computing hessian-vector products by finite difference
    4      1.56e-01     00000 Davidson Iteration
computing hessian-vector products by finite difference
    5      5.64e-02     00000 Davidson Iteration
computing hessian-vector products by finite difference
    6      1.22e-02     00000 Davidson Iteration
computing hessian-vector products by finite difference
    7      6.14e-03     00000 Davidson Iteration
computing hessian-vector products by finite difference
    8      1.98e-03     00000 Davidson Iteration
computing hessian-vector products by finite difference
    9      5.62e-04     00000 Davidson Iteration
computing hessian-vector products by finite difference
   10      3.80e-04     00000 Davidson Iteration
computing hessian-vector products by finite difference
   11      1.97e-04     00000 Davidson Iteration
computing hessian-vector products by finite difference
   12      3.03e-04     00000 Davidson Iteration
computing hessian-vector products by finite difference
   13      6.28e-05     00000 Davidson Iteration
computing hessian-vector products by finite difference
   14      1.79e-04     00000 Davidson Iteration
computing hessian-vector products by finite difference
   15      1.09e-04     00000 Davidson Iteration
computing hessian-vector products by finite difference
   16      1.10e-04     00000 Davidson Iteration
computing hessian-vector products by finite difference
   17      1.06e-04     00000 Davidson Iteration
computing hessian-vector products by finite difference
   18      1.17e-04     00000 Davidson Iteration
computing hessian-vector products by finite difference
   19      8.05e-05     00000 Davidson Converged
converged_eigenvalues
   0.3809
   0.2854
Threshold for negative eigenvalues: -1.0e-05
solution was a local minimum (stable)
===================================================
End Test for Internal Stability
===================================================
Timing for Internal Stability: 35565.00s (wall), 280181.22s (cpu)
Our SCF solution is stable!
Timing for Total SCF: 42252.00s (wall), 332953.92s (cpu)
 Total energy in the final basis set =     -536.9663722578
<S^2> =         -0.000000000
    ==================================================
              The end of Object-Oriented SCFman       
    ==================================================

 --------------------------------------------------------------

                    Orbital Energies (a.u.)
 --------------------------------------------------------------

 Alpha MOs
 -- Occupied --
********  -9.9635  -9.9198  -9.2218  -7.0532  -7.0423  -7.0423  -0.8314
 -0.6752  -0.5045  -0.4567  -0.3544  -0.3544  -0.2433  -0.2433
 -- Virtual --
 -0.0307  -0.0145  -0.0145  -0.0071   0.0009   0.0162   0.0162   0.0250
  0.0282   0.0282   0.0393   0.0454   0.0575   0.0604   0.0604   0.0688
  0.0688   0.0736   0.0770   0.0770   0.0956   0.0956   0.1057   0.1057
  0.1250   0.1322   0.1394   0.1404   0.1404   0.1504   0.1618   0.1618
  0.1744   0.1754   0.1754   0.1808   0.1808   0.2039   0.2039   0.2040
  0.2040   0.2163   0.2163   0.2193   0.2193   0.2214   0.2395   0.2395
  0.2425   0.2425   0.2673   0.2758   0.2758   0.2867   0.2901   0.2901
  0.2949   0.3153   0.3240   0.3240   0.3345   0.3345   0.3354   0.3439
  0.3439   0.3491   0.3491   0.3547   0.3547   0.3684   0.3684   0.3687
  0.3712   0.3712   0.3926   0.3926   0.4228   0.4403   0.4403   0.4491
  0.4491   0.4576   0.4576   0.4679   0.4679   0.4767   0.4767   0.4841
  0.4872   0.4872   0.4913   0.4913   0.4929   0.4929   0.5166   0.5225
  0.5482   0.5482   0.5536   0.5536   0.5650   0.5650   0.5676   0.5682
  0.5711   0.5711   0.6000   0.6000   0.6019   0.6019   0.6163   0.6163
  0.6258   0.6337   0.6337   0.6632   0.6632   0.6769   0.6769   0.6780
  0.6780   0.6905   0.7114   0.7114   0.7209   0.7209   0.7314   0.7351
  0.7407   0.7407   0.7461   0.7461   0.7591   0.7591   0.7835   0.7835
  0.8338   0.8338   0.8345   0.8345   0.8456   0.8504   0.8504   0.8526
  0.8526   0.8548   0.8586   0.8586   0.8771   0.8771   0.9012   0.9012
  0.9013   0.9193   0.9193   0.9227   0.9227   0.9406   0.9825   0.9825
  0.9972   0.9972   1.0059   1.0059   1.0062   1.0200   1.0200   1.0239
  1.0464   1.0464   1.0591   1.0836   1.0836   1.1124   1.1133   1.1133
  1.1217   1.1217   1.1587   1.1587   1.1862   1.1862   1.1977   1.2751
  1.2941   1.2941   1.3241   1.3408   1.3408   1.3522   1.3522   1.3954
  1.3954   1.4451   1.4451   1.4986   1.4986   1.5073   1.5529   1.5529
  1.5660   1.5660   1.6416   1.6416   1.6471   1.6699   1.7578   1.8458
  1.8458   1.9019   1.9019   1.9112   1.9309   1.9309   1.9665   2.0238
  2.0238   2.0390   2.0857   2.0857   2.0929   2.0929   2.1037   2.2336
  2.2336   2.2704   2.3011   2.3011   2.3116   2.3116   2.3931   2.3931
  2.4647   2.5388   2.5388   2.5669   2.6336   2.6336   2.6815   2.6815
  2.7330   2.7548   2.7548   2.8628   2.8628   2.8738   2.8738   3.0276
  3.0276   3.0452   3.1091   3.1091   3.1687   3.2841   3.3470   3.3470
  3.5093   3.5093   3.5201   3.5575   3.5575   3.5762   3.5762   3.7125
  3.7125   3.7608   3.7728   3.7728   3.9043   3.9043   3.9502   3.9502
  3.9599   3.9599   4.0361   4.0376   4.0376   4.0912   4.1630   4.1630
  4.2175   4.2175   4.2343   4.2734   4.2734   4.2737   4.2737   4.2877
  4.2877   4.3691   4.5491   4.5491   4.5647   4.5647   4.6402   4.6402
  4.6541   4.7341   4.7341   4.7352   4.8421   4.8421   4.9679   4.9679
  5.0175   5.0499   5.0499   5.0732   5.0732   5.1168   5.1168   5.1188
  5.4105   5.4716   5.4716   5.5520   5.5520   5.6644   5.6644   5.6653
  5.6653   5.7024   5.9182   5.9206   5.9206   5.9277   5.9277   6.0804
  6.0804   6.2395   6.2917   6.2917   6.3521   6.4072   6.4072   6.4440
  6.4440   6.8196   6.9119   6.9119   7.0855   7.0855   7.2601   7.4311
  7.4311   7.7100   7.8482   7.8482   7.8833   8.3425   8.3425   8.3478
  8.6027   8.8497   8.8497   9.0496   9.0496   9.0656   9.0656   9.0955
  9.0955   9.3885   9.3885   9.5736   9.6933   9.9330   9.9330  10.0370
 10.0370  10.1171  10.1171  10.2096  10.2096  10.2639  10.2639  10.3402
 10.3402  10.3623  10.3632  10.3632  10.6507  10.6507  10.7189  10.7189
 10.8364  10.8364  10.8605  10.8657  10.8657  11.1271  11.2905  11.2905
 11.3732  11.3732  11.5264  11.5264  11.5608  11.5608  11.6657  11.6657
 11.6876  11.6876  11.6966  11.6966  11.7734  11.7734  11.7844  11.8531
 11.8531  11.9701  11.9701  12.0302  12.0302  12.1071  12.1071  12.2793
 12.3103  12.3103  12.4514  12.7361  12.7361  12.7967  12.7967  12.8193
 12.8193  12.8434  12.8434  13.0592  13.0592  13.1722  13.1722  13.1954
 13.5665  13.6484  13.6484  13.7761  13.7761  13.8863  14.1908  14.1908
 14.6894  15.1625  15.1625  15.2934  16.1649  16.1649  16.4757  16.7222
 16.7222  17.0248  17.0248  17.2133  17.2133  17.3761  17.7047  17.7048
 17.7398  18.0457  18.0457  18.1977  18.1977  18.4303  19.0633  19.0633
 19.3336  19.5950  19.5950  20.7065  21.4521  21.4521  21.8483  23.9308
 23.9334  23.9334  26.0878  31.8807  31.8807  32.0438  32.0438  32.2886
 32.2886  33.4090  33.4090  33.8646  35.4187  41.2054  42.8088  65.8111
 65.8111  65.9830  65.9830  66.4234  75.8609  76.7223  91.2150  91.2150
 92.4842

 Beta MOs
 -- Occupied --
********  -9.9635  -9.9198  -9.2218  -7.0532  -7.0423  -7.0423  -0.8314
 -0.6752  -0.5045  -0.4567  -0.3544  -0.3544  -0.2433  -0.2433
 -- Virtual --
 -0.0307  -0.0145  -0.0145  -0.0071   0.0009   0.0162   0.0162   0.0250
  0.0282   0.0282   0.0393   0.0454   0.0575   0.0604   0.0604   0.0688
  0.0688   0.0736   0.0770   0.0770   0.0956   0.0956   0.1057   0.1057
  0.1250   0.1322   0.1394   0.1404   0.1404   0.1504   0.1618   0.1618
  0.1744   0.1754   0.1754   0.1808   0.1808   0.2039   0.2039   0.2040
  0.2040   0.2163   0.2163   0.2193   0.2193   0.2214   0.2395   0.2395
  0.2425   0.2425   0.2673   0.2758   0.2758   0.2867   0.2901   0.2901
  0.2949   0.3153   0.3240   0.3240   0.3345   0.3345   0.3354   0.3439
  0.3439   0.3491   0.3491   0.3547   0.3547   0.3684   0.3684   0.3687
  0.3712   0.3712   0.3926   0.3926   0.4228   0.4403   0.4403   0.4491
  0.4491   0.4576   0.4576   0.4679   0.4679   0.4767   0.4767   0.4841
  0.4872   0.4872   0.4913   0.4913   0.4929   0.4929   0.5166   0.5225
  0.5482   0.5482   0.5536   0.5536   0.5650   0.5650   0.5676   0.5682
  0.5711   0.5711   0.6000   0.6000   0.6019   0.6019   0.6163   0.6163
  0.6258   0.6337   0.6337   0.6632   0.6632   0.6769   0.6769   0.6780
  0.6780   0.6905   0.7114   0.7114   0.7209   0.7209   0.7314   0.7351
  0.7407   0.7407   0.7461   0.7461   0.7591   0.7591   0.7835   0.7835
  0.8338   0.8338   0.8345   0.8345   0.8456   0.8504   0.8504   0.8526
  0.8526   0.8548   0.8586   0.8586   0.8771   0.8771   0.9012   0.9012
  0.9013   0.9193   0.9193   0.9227   0.9227   0.9406   0.9825   0.9825
  0.9972   0.9972   1.0059   1.0059   1.0062   1.0200   1.0200   1.0239
  1.0464   1.0464   1.0591   1.0836   1.0836   1.1124   1.1133   1.1133
  1.1217   1.1217   1.1587   1.1587   1.1862   1.1862   1.1977   1.2751
  1.2941   1.2941   1.3241   1.3408   1.3408   1.3522   1.3522   1.3954
  1.3954   1.4451   1.4451   1.4986   1.4986   1.5073   1.5529   1.5529
  1.5660   1.5660   1.6416   1.6416   1.6471   1.6699   1.7578   1.8458
  1.8458   1.9019   1.9019   1.9112   1.9309   1.9309   1.9665   2.0238
  2.0238   2.0390   2.0857   2.0857   2.0929   2.0929   2.1037   2.2336
  2.2336   2.2704   2.3011   2.3011   2.3116   2.3116   2.3931   2.3931
  2.4647   2.5388   2.5388   2.5669   2.6336   2.6336   2.6815   2.6815
  2.7330   2.7548   2.7548   2.8628   2.8628   2.8738   2.8738   3.0276
  3.0276   3.0452   3.1091   3.1091   3.1687   3.2841   3.3470   3.3470
  3.5093   3.5093   3.5201   3.5575   3.5575   3.5762   3.5762   3.7125
  3.7125   3.7608   3.7728   3.7728   3.9043   3.9043   3.9502   3.9502
  3.9599   3.9599   4.0361   4.0376   4.0376   4.0912   4.1630   4.1630
  4.2175   4.2175   4.2343   4.2734   4.2734   4.2737   4.2737   4.2877
  4.2877   4.3691   4.5491   4.5491   4.5647   4.5647   4.6402   4.6402
  4.6541   4.7341   4.7341   4.7352   4.8421   4.8421   4.9679   4.9679
  5.0175   5.0499   5.0499   5.0732   5.0732   5.1168   5.1168   5.1188
  5.4105   5.4716   5.4716   5.5520   5.5520   5.6644   5.6644   5.6653
  5.6653   5.7024   5.9182   5.9206   5.9206   5.9277   5.9277   6.0804
  6.0804   6.2395   6.2917   6.2917   6.3521   6.4072   6.4072   6.4440
  6.4440   6.8196   6.9119   6.9119   7.0855   7.0855   7.2601   7.4311
  7.4311   7.7100   7.8482   7.8482   7.8833   8.3425   8.3425   8.3478
  8.6027   8.8497   8.8497   9.0496   9.0496   9.0656   9.0656   9.0955
  9.0955   9.3885   9.3885   9.5736   9.6933   9.9330   9.9330  10.0370
 10.0370  10.1171  10.1171  10.2096  10.2096  10.2639  10.2639  10.3402
 10.3402  10.3623  10.3632  10.3632  10.6507  10.6507  10.7189  10.7189
 10.8364  10.8364  10.8605  10.8657  10.8657  11.1271  11.2905  11.2905
 11.3732  11.3732  11.5264  11.5264  11.5608  11.5608  11.6657  11.6657
 11.6876  11.6876  11.6966  11.6966  11.7734  11.7734  11.7844  11.8531
 11.8531  11.9701  11.9701  12.0302  12.0302  12.1071  12.1071  12.2793
 12.3103  12.3103  12.4514  12.7361  12.7361  12.7967  12.7967  12.8193
 12.8193  12.8434  12.8434  13.0592  13.0592  13.1722  13.1722  13.1954
 13.5665  13.6484  13.6484  13.7761  13.7761  13.8863  14.1908  14.1908
 14.6894  15.1625  15.1625  15.2934  16.1649  16.1649  16.4757  16.7222
 16.7222  17.0248  17.0248  17.2133  17.2133  17.3761  17.7047  17.7048
 17.7398  18.0457  18.0457  18.1977  18.1977  18.4303  19.0633  19.0633
 19.3336  19.5950  19.5950  20.7065  21.4521  21.4521  21.8483  23.9308
 23.9334  23.9334  26.0878  31.8807  31.8807  32.0438  32.0438  32.2886
 32.2886  33.4090  33.4090  33.8646  35.4187  41.2054  42.8088  65.8111
 65.8111  65.9830  65.9830  66.4234  75.8609  76.7223  91.2150  91.2150
 92.4842
 --------------------------------------------------------------

          Ground-State Mulliken Net Atomic Charges

     Atom                 Charge (a.u.)    Spin (a.u.)
  --------------------------------------------------------
      1 C                    -0.054443      -0.000000
      2 C                     0.005499      -0.000000
      3 Cl                   -0.088307       0.000000
      4 H                     0.137251       0.000000
  --------------------------------------------------------
  Sum of atomic charges =    -0.000000
  Sum of spin   charges =     0.000000

 -----------------------------------------------------------------
                    Cartesian Multipole Moments
 -----------------------------------------------------------------
    Charge (ESU x 10^10)
                 0.0000
    Dipole Moment (Debye)
         X       0.0000      Y       0.0000      Z      -0.2610
       Tot       0.2610
    Quadrupole Moments (Debye-Ang)
        XX     -25.0383     XY      -0.0000     YY     -25.0383
        XZ      -0.0000     YZ      -0.0000     ZZ     -18.6544
    Octopole Moments (Debye-Ang^2)
       XXX      -0.0000    XXY      -0.0000    XYY      -0.0000
       YYY       0.0000    XXZ       3.9154    XYZ       0.0000
       YYZ       3.9154    XZZ       0.0000    YZZ       0.0000
       ZZZ      -5.6669
    Hexadecapole Moments (Debye-Ang^3)
      XXXX     -29.8786   XXXY      -0.0000   XXYY      -9.9595
      XYYY      -0.0000   YYYY     -29.8786   XXXZ      -0.0000
      XXYZ      -0.0000   XYYZ      -0.0000   YYYZ      -0.0000
      XXZZ     -51.2126   XYZZ      -0.0000   YYZZ     -51.2126
      XZZZ      -0.0000   YZZZ      -0.0000   ZZZZ    -188.9573
 -----------------------------------------------------------------
Archival summary:
1\1\n0053.mhg0\SP\ProcedureUnspecified\BasisUnspecified\l121\yhljason\SunAug2305:54:552020SunAug2305:54:552020\0\\#,ProcedureUnspecified,BasisUnspecified,\\0,1\Cl\C,1,1.6368\C,2,1.2033,1,180\H,3,1.055,2,180,1,0,0\\\@

 Total job time:  43022.79s(wall), 339018.93s(cpu) 
 Sun Aug 23 05:54:55 2020

        *************************************************************
        *                                                           *
        *  Thank you very much for using Q-Chem.  Have a nice day.  *
        *                                                           *
        *************************************************************


