                  Welcome to Q-Chem
     A Quantum Leap Into The Future Of Chemistry


 Q-Chem 5.3 (devel), Q-Chem, Inc., Pleasanton, CA (2020)

 Yihan Shao,  Zhengting Gan,  E. Epifanovsky,  A. T. B. Gilbert,  M. Wormit,  
 J. Kussmann,  A. W. Lange,  A. Behn,  Jia Deng,  Xintian Feng,  D. Ghosh,  
 M. Goldey,  P. R. Horn,  L. D. Jacobson,  I. Kaliman,  T. Kus,  A. Landau,  
 Jie Liu,  E. I. Proynov,  R. M. Richard,  R. P. Steele,  E. J. Sundstrom,  
 H. L. Woodcock III,  P. M. Zimmerman,  D. Zuev,  B. Alam,  B. Albrecht,  
 E. Alguire,  S. A. Baeppler,  D. Barton,  Z. Benda,  Y. A. Bernard,  
 E. J. Berquist,  K. B. Bravaya,  H. Burton,  K. Carter-Fenk,  D. Casanova,  
 Chun-Min Chang,  Yunqing Chen,  A. Chien,  K. D. Closser,  M. P. Coons,  
 S. Coriani,  S. Dasgupta,  A. L. Dempwolff,  M. Diedenhofen,  Hainam Do,  
 R. G. Edgar,  Po-Tung Fang,  S. Faraji,  S. Fatehi,  Qingguo Feng,  
 J. Fosso-Tande,  J. Gayvert,  Qinghui Ge,  A. Ghysels,  G. Gidofalvi,  
 J. Gomes,  J. Gonthier,  A. Gunina,  D. Hait,  M. W. D. Hanson-Heine,  
 P. H. P. Harbach,  A. W. Hauser,  M. F. Herbst,  J. E. Herr,  
 E. G. Hohenstein,  Z. C. Holden,  Kerwin Hui,  B. C. Huynh,  T.-C. Jagau,  
 Hyunjun Ji,  B. Kaduk,  K. Khistyaev,  Jaehoon Kim,  P. Klunzinger,  K. Koh,  
 D. Kosenkov,  L. Koulias,  T. Kowalczyk,  C. M. Krauter,  A. Kunitsa,  
 Ka Un Lao,  A. Laurent,  K. V. Lawler,  Joonho Lee,  D. Lefrancois,  
 S. Lehtola,  D. S. Levine,  Yi-Pei Li,  You-Sheng Lin,  Fenglai Liu,  
 Kuan-Yu Liu,  E. Livshits,  M. Loipersberger,  A. Luenser,  P. Manohar,  
 E. Mansoor,  S. F. Manzer,  Shan-Ping Mao,  Yuezhi Mao,  N. Mardirossian,  
 A. V. Marenich,  T. Markovich,  L. A. Martinez-Martinez,  S. A. Maurer,  
 N. J. Mayhall,  S. C. McKenzie,  J.-M. Mewes,  P. Morgante,  A. F. Morrison,  
 J. W. Mullinax,  K. Nanda,  T. S. Nguyen-Beck,  R. Olivares-Amaya,  
 K. J. Oosterbaan,  J. A. Parkhill,  S. K. Paul,  F. Pavosevic,  Zheng Pei,  
 T. M. Perrine,  F. Plasser,  P. Pokhilko,  S. Prager,  A. Prociuk,  
 E. Ramos,  B. Rana,  D. R. Rehn,  F. Rob,  M. Scheurer,  M. Schneider,  
 N. Sergueev,  S. M. Sharada,  S. Sharma,  D. W. Small,  T. Stauch,  
 C. J. Stein,  T. Stein,  Yu-Chuan Su,  S. P. Veccham,  Zhen Tao,  
 A. J. W. Thom,  A. Tkatchenko,  T. Tsuchimochi,  N. M. Tubman,  L. Vogt,  
 M. L. Vidal,  O. Vydrov,  M. A. Watson,  J. Wenzel,  M. de Wergifosse,  
 T. A. Wesolowski,  A. White,  J. Witte,  A. Yamada,  Jun Yang,  K. Yao,  
 S. Yeganeh,  S. R. Yost,  Zhi-Qiang You,  A. Zech,  Igor Ying Zhang,  
 Xing Zhang,  Yan Zhao,  Ying Zhu,  B. R. Brooks,  G. K. L. Chan,  
 C. J. Cramer,  M. S. Gordon,  W. J. Hehre,  A. Klamt,  M. W. Schmidt,  
 C. D. Sherrill,  D. G. Truhlar,  A. Aspuru-Guzik,  R. Baer,  A. T. Bell,  
 N. A. Besley,  Jeng-Da Chai,  A. E. DePrince, III,  R. A. DiStasio Jr.,  
 A. Dreuw,  B. D. Dunietz,  T. R. Furlani,  Chao-Ping Hsu,  Yousung Jung,  
 Jing Kong,  D. S. Lambrecht,  WanZhen Liang,  C. Ochsenfeld,  
 V. A. Rassolov,  L. V. Slipchenko,  J. E. Subotnik,  T. Van Voorhis,  
 J. M. Herbert,  A. I. Krylov,  P. M. W. Gill,  M. Head-Gordon

 Contributors to earlier versions of Q-Chem not listed above: 
 R. D. Adamson,  B. Austin,  J. Baker,  G. J. O. Beran,  K. Brandhorst,  
 S. T. Brown,  E. F. C. Byrd,  A. K. Chakraborty,  C.-L. Cheng,  
 Siu Hung Chien,  D. M. Chipman,  D. L. Crittenden,  H. Dachsel,  
 R. J. Doerksen,  A. D. Dutoi,  L. Fusti-Molnar,  W. A. Goddard III,  
 A. Golubeva-Zadorozhnaya,  S. R. Gwaltney,  G. Hawkins,  A. Heyden,  
 S. Hirata,  G. Kedziora,  F. J. Keil,  C. Kelley,  Jihan Kim,  R. A. King,  
 R. Z. Khaliullin,  P. P. Korambath,  W. Kurlancheek,  A. M. Lee,  M. S. Lee,  
 S. V. Levchenko,  Ching Yeh Lin,  D. Liotard,  R. C. Lochan,  I. Lotan,  
 P. E. Maslen,  N. Nair,  D. P. O'Neill,  D. Neuhauser,  E. Neuscamman,  
 C. M. Oana,  R. Olson,  B. Peters,  R. Peverati,  P. A. Pieniazek,  
 Y. M. Rhee,  J. Ritchie,  M. A. Rohrdanz,  E. Rosta,  N. J. Russ,  
 H. F. Schaefer III,  N. E. Schultz,  N. Shenvi,  A. C. Simmonett,  A. Sodt,  
 D. Stuck,  K. S. Thanthiriwatte,  V. Vanovschi,  Tao Wang,  A. Warshel,  
 C. F. Williams,  Q. Wu,  X. Xu,  W. Zhang

 Please cite Q-Chem as follows:
 Y. Shao et al., Mol. Phys. 113, 184-215 (2015)
 DOI: 10.1080/00268976.2014.952696

 Q-Chem 5.3.0 for Intel X86 EM64T Linux

 Parts of Q-Chem use Armadillo 9.800.1 (Horizon Scraper).
 http://arma.sourceforge.net/

 Q-Chem begins on Sat Aug 22 18:03:44 2020  

n0033.mhg0
Host: 0

     Scratch files written to /local/scratch/users/yhljason/HCCCl_MGGA_MS2_aug-pc-4.inp20200822092055//
Processing $rem in /clusterfs/mhg/diptarka/qchem_transmom//config/preferences:
Processing $rem in /global/home/users/yhljason/.qchemrc:

Checking the input file for inconsistencies... 	...done.

--------------------------------------------------------------
User input:
--------------------------------------------------------------
$molecule
0 1
C1      0.0000  0.0000  -1.8149
C2      0.0000  0.0000  -0.6116
Cl3     0.0000  0.0000  1.0252
H4      0.0000  0.0000  -2.8699
$end

$rem
jobtype sp
method MGGA_MS2
xc_grid 000099000590
basis aug-pc-4
max_scf_cycles 200
thresh 14
scf_convergence 8
scf_algorithm gdm
symmetry false
sym_ignore true
unrestricted true
gen_scfman true
internal_stability_iter 15
internal_stability_davidson_iter 200
mem_total 64000
mem_static 1500
n_frozen_core 0
$end


--------------------------------------------------------------
 ----------------------------------------------------------------
             Standard Nuclear Orientation (Angstroms)
    I     Atom           X                Y                Z
 ----------------------------------------------------------------
    1      C       0.0000000000     0.0000000000    -1.8149000000
    2      C       0.0000000000     0.0000000000    -0.6116000000
    3      Cl      0.0000000000     0.0000000000     1.0252000000
    4      H       0.0000000000     0.0000000000    -2.8699000000
 ----------------------------------------------------------------
 Nuclear Repulsion Energy =          74.53841897 hartrees
 There are       15 alpha and       15 beta electrons
 Requested basis set is aug-pc-4
 There are 121 shells and 519 basis functions

 Total QAlloc Memory Limit  64000 MB
 Mega-Array Size      1467 MB
 MEM_STATIC part      1500 MB

                       Distance Matrix (Angstroms)
             C (  1)   C (  2)   Cl(  3)
   C (  2)  1.203300
   Cl(  3)  2.840100  1.636800
   H (  4)  1.055000  2.258300  3.895100

 A cutoff of  1.0D-14 yielded   7137 shell pairs
 There are    132677 function pairs (    253157 Cartesian)
 Smallest overlap matrix eigenvalue = 3.93E-08
 Linear dependence detected in AO basis
 Tighter screening thresholds may be required for diffuse basis sets
 Use S2THRESH > 14 and THRESH = 14 in case of SCF convergence issues
 Number of orthogonalized atomic orbitals = 512
 Maximum deviation from orthogonality = 1.077E-10

 Scale SEOQF with 1.000000e-01/1.000000e-01/1.000000e-01

 Standard Electronic Orientation quadrupole field applied
 Nucleus-field energy     =    -0.0000000052 hartrees
 Guess from superposition of atomic densities
 Warning:  Energy on first SCF cycle will be non-variational
 SAD guess density has 30.000000 electrons

 -----------------------------------------------------------------------
  General SCF calculation program by
  Eric Jon Sundstrom, Paul Horn, Yuezhi Mao, Dmitri Zuev, Alec White,
  David Stuck, Shaama M.S., Shane Yost, Joonho Lee, David Small,
  Daniel Levine, Susi Lehtola, Hugh Burton, Evgeny Epifanovsky,
  Bang C. Huynh
 -----------------------------------------------------------------------
 Exchange:  MGGA_MS2      Correlation:  regTPSS
 Using Euler-Maclaurin-Lebedev (99,590) quadrature formula
Running Object-Oriented UKS (UHF)
performing a single roothaan step with Fock from read density so that orbitals are available to all algorithms
energy of the guess density (C=0) -537.423775100593
We will preform up to 15 macro iterations over saddle points until a stable solution is found
Energy prior to optimization (guess energy) = -536.907415940429
Begin Timing: Total SCF Calculation
Begin Timing: SCF Single Stationary Point Calculation
begin iterations for algorithm: GDM          
the SCF tolerance is set to 1.00e-08
    1    -536.9074159404      1.09e-01     00000  Descent step
    2    -536.9845767623      1.04e-01     00000  Normal BFGS step
    3    -536.9820803160      1.15e-01     00000 Line search: overstep
    4    -537.0057635665      3.35e-02     00000  Normal BFGS step
    5    -537.0069507943      2.59e-02     00000  Normal BFGS step
    6    -537.0123564568      3.64e-03     00000  Normal BFGS step
    7    -537.0124442037      2.60e-03     00000  Normal BFGS step
    8    -537.0125416680      2.49e-05     00000  Normal BFGS step
    9    -537.0125416881      1.45e-05     00000  Normal BFGS step
   10    -537.0125416911      4.41e-06     00000  Normal BFGS step
   11    -537.0125416914      8.48e-07     00000  Normal BFGS step
   12    -537.0125416914      1.12e-07     00000  Normal BFGS step
   13    -537.0125416914      5.08e-08     00000  Normal BFGS step
   14    -537.0125416914      9.76e-08     00000  Normal BFGS step
   15    -537.0125416914      4.31e-08     00000  Normal BFGS step
   16    -537.0125416914      6.50e-08     00000  Normal BFGS step
   17    -537.0125416914      1.79e-09     00000 Convergence criterion met
Timing for Single Stationary Point: 5847.00s (wall), 46157.32s (cpu)
Begin Timing: Stability
===================================================
Beginning Test for Internal Stability
===================================================
generating davidson guess vectors based on koopmans excitations
 Warning: Hessian-vector products not implemented
 Finite difference Hessian-vector products will be used.
computing hessian-vector products by finite difference
    1      6.91e-01     00000 Davidson Iteration
computing hessian-vector products by finite difference
    2      3.12e-01     00000 Davidson Iteration
computing hessian-vector products by finite difference
    3      2.70e-01     00000 Davidson Iteration
computing hessian-vector products by finite difference
    4      1.06e-01     00000 Davidson Iteration
computing hessian-vector products by finite difference
    5      3.89e-02     00000 Davidson Iteration
computing hessian-vector products by finite difference
    6      1.33e-02     00000 Davidson Iteration
computing hessian-vector products by finite difference
    7      8.77e-03     00000 Davidson Iteration
computing hessian-vector products by finite difference
    8      6.21e-03     00000 Davidson Iteration
computing hessian-vector products by finite difference
    9      8.35e-03     00000 Davidson Iteration
computing hessian-vector products by finite difference
   10      4.78e-03     00000 Davidson Iteration
computing hessian-vector products by finite difference
   11      3.36e-03     00000 Davidson Iteration
computing hessian-vector products by finite difference
   12      3.41e-03     00000 Davidson Iteration
computing hessian-vector products by finite difference
   13      3.66e-03     00000 Davidson Iteration
computing hessian-vector products by finite difference
   14      1.05e-03     00000 Davidson Iteration
computing hessian-vector products by finite difference
   15      3.12e-04     00000 Davidson Iteration
computing hessian-vector products by finite difference
   16      1.53e-04     00000 Davidson Iteration
computing hessian-vector products by finite difference
   17      6.43e-05     00000 Davidson Iteration
computing hessian-vector products by finite difference
   18      2.78e-03     00000 Davidson Iteration
computing hessian-vector products by finite difference
   19      3.28e-03     00000 Davidson Iteration
computing hessian-vector products by finite difference
   20      3.27e-03     00000 Davidson Iteration
computing hessian-vector products by finite difference
   21      9.70e-04     00000 Davidson Iteration
computing hessian-vector products by finite difference
   22      4.16e-04     00000 Davidson Iteration
computing hessian-vector products by finite difference
   23      1.57e-04     00000 Davidson Iteration
computing hessian-vector products by finite difference
   24      5.13e-05     00000 Davidson Converged
converged_eigenvalues
   0.2233
   0.2241
Threshold for negative eigenvalues: -1.0e-05
solution was a local minimum (stable)
===================================================
End Test for Internal Stability
===================================================
Timing for Internal Stability: 41384.00s (wall), 326051.96s (cpu)
Our SCF solution is stable!
Timing for Total SCF: 47231.00s (wall), 372209.59s (cpu)
 Total energy in the final basis set =     -537.0125416914
<S^2> =          0.000000000
    ==================================================
              The end of Object-Oriented SCFman       
    ==================================================

 --------------------------------------------------------------

                    Orbital Energies (a.u.)
 --------------------------------------------------------------

 Alpha MOs
 -- Occupied --
******** -10.0571 -10.0137  -9.3944  -7.0989  -7.0874  -7.0874  -0.8735
 -0.7226  -0.5308  -0.4789  -0.3683  -0.3683  -0.2534  -0.2534
 -- Virtual --
 -0.0133  -0.0001  -0.0001   0.0049   0.0130   0.0247   0.0247   0.0351
  0.0371   0.0371   0.0476   0.0555   0.0665   0.0686   0.0686   0.0796
  0.0796   0.0861   0.0861   0.0874   0.1066   0.1066   0.1173   0.1173
  0.1366   0.1421   0.1502   0.1502   0.1518   0.1622   0.1752   0.1752
  0.1879   0.1879   0.1883   0.1894   0.1894   0.2165   0.2165   0.2165
  0.2165   0.2265   0.2265   0.2311   0.2321   0.2321   0.2529   0.2529
  0.2565   0.2565   0.2823   0.2859   0.2859   0.2992   0.3030   0.3030
  0.3092   0.3271   0.3319   0.3319   0.3498   0.3512   0.3512   0.3563
  0.3563   0.3631   0.3631   0.3710   0.3710   0.3771   0.3771   0.3865
  0.3865   0.3867   0.4037   0.4037   0.4371   0.4511   0.4511   0.4653
  0.4653   0.4736   0.4736   0.4834   0.4834   0.4947   0.4947   0.5002
  0.5002   0.5028   0.5072   0.5072   0.5112   0.5112   0.5326   0.5433
  0.5642   0.5642   0.5682   0.5682   0.5741   0.5741   0.5823   0.5870
  0.5907   0.5907   0.6172   0.6172   0.6219   0.6219   0.6342   0.6342
  0.6481   0.6543   0.6543   0.6719   0.6719   0.6904   0.6904   0.7016
  0.7016   0.7160   0.7260   0.7260   0.7434   0.7434   0.7559   0.7573
  0.7573   0.7629   0.7629   0.7643   0.7761   0.7761   0.7951   0.7951
  0.8496   0.8496   0.8526   0.8526   0.8658   0.8722   0.8722   0.8746
  0.8746   0.8784   0.8784   0.8905   0.8978   0.8978   0.9234   0.9234
  0.9309   0.9425   0.9425   0.9453   0.9453   0.9617   1.0049   1.0049
  1.0146   1.0146   1.0246   1.0246   1.0370   1.0509   1.0572   1.0572
  1.0643   1.0643   1.0879   1.1205   1.1205   1.1540   1.1540   1.1577
  1.1577   1.1579   1.1876   1.1876   1.2335   1.2335   1.2351   1.3053
  1.3512   1.3512   1.3800   1.3861   1.3861   1.3958   1.3958   1.4806
  1.4806   1.4887   1.4887   1.5398   1.5398   1.5531   1.6214   1.6214
  1.6363   1.6363   1.6892   1.6892   1.6998   1.7511   1.8301   1.9106
  1.9106   1.9675   1.9905   1.9905   2.0144   2.0144   2.0532   2.1109
  2.1109   2.1182   2.1729   2.1729   2.1798   2.1891   2.1891   2.3089
  2.3089   2.3503   2.3929   2.3929   2.4066   2.4066   2.5196   2.5196
  2.5733   2.6539   2.6628   2.6628   2.7410   2.7410   2.8001   2.8001
  2.8424   2.8763   2.8763   3.0644   3.0644   3.0773   3.0773   3.1548
  3.1626   3.1626   3.2584   3.2584   3.3210   3.4310   3.5132   3.5132
  3.6492   3.7257   3.7257   3.7433   3.7433   3.7637   3.7637   3.8927
  3.9173   3.9173   3.9466   3.9466   4.1133   4.1133   4.1491   4.1491
  4.1711   4.1711   4.2214   4.2433   4.2433   4.2775   4.3273   4.3273
  4.3892   4.3892   4.4425   4.4905   4.4905   4.4929   4.4929   4.4935
  4.4935   4.5824   4.7851   4.7851   4.7991   4.7991   4.8412   4.8476
  4.8476   4.9287   4.9287   4.9674   5.0661   5.0661   5.1825   5.1825
  5.2386   5.2893   5.2893   5.3453   5.3453   5.3590   5.3948   5.3948
  5.6366   5.8028   5.8028   5.8300   5.8300   5.9625   6.0460   6.0461
  6.0832   6.0832   6.1387   6.1388   6.2147   6.2986   6.2986   6.3114
  6.3114   6.4886   6.4886   6.5027   6.6075   6.7345   6.7345   6.7893
  6.7893   7.1447   7.2082   7.2082   7.4392   7.4392   7.5839   7.8527
  7.8528   8.0361   8.1922   8.2288   8.2288   8.6889   8.7280   8.7280
  8.9402   9.1539   9.1539   9.3873   9.3875   9.3910   9.3910   9.4491
  9.4491   9.6878   9.6878   9.9149  10.0522  10.2629  10.2629  10.4209
 10.4209  10.4440  10.4440  10.5096  10.5096  10.6049  10.6049  10.7287
 10.7932  10.7932  10.7974  10.7974  11.0771  11.0771  11.1218  11.1218
 11.1908  11.1909  11.2793  11.2793  11.2968  11.5031  11.7179  11.7180
 11.8270  11.8271  11.9098  11.9099  11.9201  11.9202  11.9429  11.9429
 12.0090  12.0092  12.0742  12.0742  12.0953  12.0953  12.1373  12.1373
 12.2003  12.3847  12.3847  12.4132  12.4133  12.5010  12.5010  12.6537
 12.7984  12.7984  12.8516  13.0740  13.0740  13.0937  13.0938  13.2432
 13.2432  13.3062  13.3062  13.4845  13.4845  13.6108  13.6108  13.6404
 13.9082  14.1288  14.1288  14.1454  14.1455  14.4273  14.7327  14.7327
 15.1148  15.8086  15.8214  15.8215  16.7360  16.7360  16.9132  17.3199
 17.3199  17.4823  17.4823  17.7376  17.8154  17.8154  17.9587  17.9588
 18.1638  18.2950  18.2950  18.3501  18.3501  18.8581  19.7515  19.7524
 19.7524  19.9944  19.9944  21.3493  22.1323  22.1323  22.2030  24.2625
 24.3774  24.3774  26.5918  32.1606  32.1607  32.3236  32.3237  32.6180
 32.6180  33.7693  33.7693  34.2387  35.8155  41.8066  43.2688  66.6033
 66.6033  66.7732  66.7732  67.2180  76.0710  76.9395  91.9704  91.9704
 93.2684

 Beta MOs
 -- Occupied --
******** -10.0571 -10.0137  -9.3944  -7.0989  -7.0874  -7.0874  -0.8735
 -0.7226  -0.5308  -0.4789  -0.3683  -0.3683  -0.2534  -0.2534
 -- Virtual --
 -0.0133  -0.0001  -0.0001   0.0049   0.0130   0.0247   0.0247   0.0351
  0.0371   0.0371   0.0476   0.0555   0.0665   0.0686   0.0686   0.0796
  0.0796   0.0861   0.0861   0.0874   0.1066   0.1066   0.1173   0.1173
  0.1366   0.1421   0.1502   0.1502   0.1518   0.1622   0.1752   0.1752
  0.1879   0.1879   0.1883   0.1894   0.1894   0.2165   0.2165   0.2165
  0.2165   0.2265   0.2265   0.2311   0.2321   0.2321   0.2529   0.2529
  0.2565   0.2565   0.2823   0.2859   0.2859   0.2992   0.3030   0.3030
  0.3092   0.3271   0.3319   0.3319   0.3498   0.3512   0.3512   0.3563
  0.3563   0.3631   0.3631   0.3710   0.3710   0.3771   0.3771   0.3865
  0.3865   0.3867   0.4037   0.4037   0.4371   0.4511   0.4511   0.4653
  0.4653   0.4736   0.4736   0.4834   0.4834   0.4947   0.4947   0.5002
  0.5002   0.5028   0.5072   0.5072   0.5112   0.5112   0.5326   0.5433
  0.5642   0.5642   0.5682   0.5682   0.5741   0.5741   0.5823   0.5870
  0.5907   0.5907   0.6172   0.6172   0.6219   0.6219   0.6342   0.6342
  0.6481   0.6543   0.6543   0.6719   0.6719   0.6904   0.6904   0.7016
  0.7016   0.7160   0.7260   0.7260   0.7434   0.7434   0.7559   0.7573
  0.7573   0.7629   0.7629   0.7643   0.7761   0.7761   0.7951   0.7951
  0.8496   0.8496   0.8526   0.8526   0.8658   0.8722   0.8722   0.8746
  0.8746   0.8784   0.8784   0.8905   0.8978   0.8978   0.9234   0.9234
  0.9309   0.9425   0.9425   0.9453   0.9453   0.9617   1.0049   1.0049
  1.0146   1.0146   1.0246   1.0246   1.0370   1.0509   1.0572   1.0572
  1.0643   1.0643   1.0879   1.1205   1.1205   1.1540   1.1540   1.1577
  1.1577   1.1579   1.1876   1.1876   1.2335   1.2335   1.2351   1.3053
  1.3512   1.3512   1.3800   1.3861   1.3861   1.3958   1.3958   1.4806
  1.4806   1.4887   1.4887   1.5398   1.5398   1.5531   1.6214   1.6214
  1.6363   1.6363   1.6892   1.6892   1.6998   1.7511   1.8301   1.9106
  1.9106   1.9675   1.9905   1.9905   2.0144   2.0144   2.0532   2.1109
  2.1109   2.1182   2.1729   2.1729   2.1798   2.1891   2.1891   2.3089
  2.3089   2.3503   2.3929   2.3929   2.4066   2.4066   2.5196   2.5196
  2.5733   2.6539   2.6628   2.6628   2.7410   2.7410   2.8001   2.8001
  2.8424   2.8763   2.8763   3.0644   3.0644   3.0773   3.0773   3.1548
  3.1626   3.1626   3.2584   3.2584   3.3210   3.4310   3.5132   3.5132
  3.6492   3.7257   3.7257   3.7433   3.7433   3.7637   3.7637   3.8927
  3.9173   3.9173   3.9466   3.9466   4.1133   4.1133   4.1491   4.1491
  4.1711   4.1711   4.2214   4.2433   4.2433   4.2775   4.3273   4.3273
  4.3892   4.3892   4.4425   4.4905   4.4905   4.4929   4.4929   4.4935
  4.4935   4.5824   4.7851   4.7851   4.7991   4.7991   4.8412   4.8476
  4.8476   4.9287   4.9287   4.9674   5.0661   5.0661   5.1825   5.1825
  5.2386   5.2893   5.2893   5.3453   5.3453   5.3590   5.3948   5.3948
  5.6366   5.8028   5.8028   5.8300   5.8300   5.9625   6.0460   6.0461
  6.0832   6.0832   6.1387   6.1388   6.2147   6.2986   6.2986   6.3114
  6.3114   6.4886   6.4886   6.5027   6.6075   6.7345   6.7345   6.7893
  6.7893   7.1447   7.2082   7.2082   7.4392   7.4392   7.5839   7.8527
  7.8528   8.0361   8.1922   8.2288   8.2288   8.6889   8.7280   8.7280
  8.9402   9.1539   9.1539   9.3873   9.3875   9.3910   9.3910   9.4491
  9.4491   9.6878   9.6878   9.9149  10.0522  10.2629  10.2629  10.4209
 10.4209  10.4440  10.4440  10.5096  10.5096  10.6049  10.6049  10.7287
 10.7932  10.7932  10.7974  10.7974  11.0771  11.0771  11.1218  11.1218
 11.1908  11.1909  11.2793  11.2793  11.2968  11.5031  11.7179  11.7180
 11.8270  11.8271  11.9098  11.9099  11.9201  11.9202  11.9429  11.9429
 12.0090  12.0092  12.0742  12.0742  12.0953  12.0953  12.1373  12.1373
 12.2003  12.3847  12.3847  12.4132  12.4133  12.5010  12.5010  12.6537
 12.7984  12.7984  12.8516  13.0740  13.0740  13.0937  13.0938  13.2432
 13.2432  13.3062  13.3062  13.4845  13.4845  13.6108  13.6108  13.6404
 13.9082  14.1288  14.1288  14.1454  14.1455  14.4273  14.7327  14.7327
 15.1148  15.8086  15.8214  15.8215  16.7360  16.7360  16.9132  17.3199
 17.3199  17.4823  17.4823  17.7376  17.8154  17.8154  17.9587  17.9588
 18.1638  18.2950  18.2950  18.3501  18.3501  18.8581  19.7515  19.7524
 19.7524  19.9944  19.9944  21.3493  22.1323  22.1323  22.2030  24.2625
 24.3774  24.3774  26.5918  32.1606  32.1607  32.3236  32.3237  32.6180
 32.6180  33.7693  33.7693  34.2387  35.8155  41.8066  43.2688  66.6033
 66.6033  66.7732  66.7732  67.2180  76.0710  76.9395  91.9704  91.9704
 93.2684
 --------------------------------------------------------------

          Ground-State Mulliken Net Atomic Charges

     Atom                 Charge (a.u.)    Spin (a.u.)
  --------------------------------------------------------
      1 C                     0.071845      -0.000000
      2 C                    -0.027909      -0.000000
      3 Cl                   -0.089611       0.000000
      4 H                     0.045674       0.000000
  --------------------------------------------------------
  Sum of atomic charges =     0.000000
  Sum of spin   charges =    -0.000000

 -----------------------------------------------------------------
                    Cartesian Multipole Moments
 -----------------------------------------------------------------
    Charge (ESU x 10^10)
                 0.0000
    Dipole Moment (Debye)
         X      -0.0000      Y       0.0000      Z      -0.4011
       Tot       0.4011
    Quadrupole Moments (Debye-Ang)
        XX     -24.7654     XY      -0.0000     YY     -24.7654
        XZ       0.0000     YZ      -0.0000     ZZ     -17.8637
    Octopole Moments (Debye-Ang^2)
       XXX      -0.0000    XXY       0.0000    XYY      -0.0000
       YYY       0.0000    XXZ       3.7505    XYZ       0.0000
       YYZ       3.7505    XZZ      -0.0000    YZZ       0.0000
       ZZZ      -7.2144
    Hexadecapole Moments (Debye-Ang^3)
      XXXX     -28.3166   XXXY      -0.0000   XXYY      -9.4389
      XYYY      -0.0000   YYYY     -28.3166   XXXZ       0.0000
      XXYZ      -0.0000   XYYZ       0.0000   YYYZ      -0.0000
      XXZZ     -49.7925   XYZZ      -0.0000   YYZZ     -49.7925
      XZZZ       0.0000   YZZZ      -0.0000   ZZZZ    -178.3451
 -----------------------------------------------------------------
Archival summary:
1\1\n0033.mhg0\SP\ProcedureUnspecified\BasisUnspecified\l121\yhljason\SunAug2307:22:392020SunAug2307:22:392020\0\\#,ProcedureUnspecified,BasisUnspecified,\\0,1\Cl\C,1,1.6368\C,2,1.2033,1,180\H,3,1.055,2,180,1,0,0\\\@

 Total job time:  47935.06s(wall), 377744.11s(cpu) 
 Sun Aug 23 07:22:39 2020

        *************************************************************
        *                                                           *
        *  Thank you very much for using Q-Chem.  Have a nice day.  *
        *                                                           *
        *************************************************************


