Q-Chem Developer Version!
                  Welcome to Q-Chem
     A Quantum Leap Into The Future Of Chemistry


 Q-Chem 5.1, Q-Chem, Inc., Pleasanton, CA (2018)

 Yihan Shao,  Zhengting Gan,  E. Epifanovsky,  A. T. B. Gilbert,  M. Wormit,  
 J. Kussmann,  A. W. Lange,  A. Behn,  Jia Deng,  Xintian Feng,  D. Ghosh,  
 M. Goldey,  P. R. Horn,  L. D. Jacobson,  I. Kaliman,  T. Kus,  A. Landau,  
 Jie Liu,  E. I. Proynov,  R. M. Richard,  R. P. Steele,  E. J. Sundstrom,  
 H. L. Woodcock III,  P. M. Zimmerman,  D. Zuev,  B. Albrecht,  E. Alguire,  
 S. A. Baeppler,  D. Barton,  Z. Benda,  Y. A. Bernard,  E. J. Berquist,  
 K. B. Bravaya,  H. Burton,  D. Casanova,  Chun-Min Chang,  Yunqing Chen,  
 A. Chien,  K. D. Closser,  M. P. Coons,  S. Coriani,  S. Dasgupta,  
 A. L. Dempwolff,  M. Diedenhofen,  Hainam Do,  R. G. Edgar,  Po-Tung Fang,  
 S. Faraji,  S. Fatehi,  Qingguo Feng,  K. D. Fenk,  J. Fosso-Tande,  
 Qinghui Ge,  A. Ghysels,  G. Gidofalvi,  J. Gomes,  J. Gonthier,  A. Gunina,  
 D. Hait,  M. W. D. Hanson-Heine,  P. H. P. Harbach,  A. W. Hauser,  
 J. E. Herr,  E. G. Hohenstein,  Z. C. Holden,  Kerwin Hui,  B. C. Huynh,  
 T.-C. Jagau,  Hyunjun Ji,  B. Kaduk,  K. Khistyaev,  Jaehoon Kim,  
 P. Klunzinger,  K. Koh,  D. Kosenkov,  L. Koulias,  T. Kowalczyk,  
 C. M. Krauter,  A. Kunitsa,  Ka Un Lao,  A. Laurent,  K. V. Lawler,  
 Joonho Lee,  D. Lefrancois,  S. Lehtola,  D. S. Levine,  Yi-Pei Li,  
 You-Sheng Lin,  Fenglai Liu,  E. Livshits,  A. Luenser,  P. Manohar,  
 E. Mansoor,  S. F. Manzer,  Shan-Ping Mao,  Yuezhi Mao,  N. Mardirossian,  
 A. V. Marenich,  T. Markovich,  L. A. Martinez-Martinez,  S. A. Maurer,  
 N. J. Mayhall,  S. C. McKenzie,  J.-M. Mewes,  A. F. Morrison,  
 J. W. Mullinax,  K. Nanda,  T. S. Nguyen-Beck,  R. Olivares-Amaya,  
 J. A. Parkhill,  T. M. Perrine,  F. Plasser,  P. Pokhilko,  S. Prager,  
 A. Prociuk,  E. Ramos,  D. R. Rehn,  F. Rob,  M. Schneider,  N. Sergueev,  
 S. M. Sharada,  S. Sharma,  D. W. Small,  T. Stauch,  T. Stein,  
 Yu-Chuan Su,  A. J. W. Thom,  A. Tkatchenko,  T. Tsuchimochi,  N. M. Tubman,  
 L. Vogt,  M. L. Vidal,  O. Vydrov,  M. A. Watson,  J. Wenzel,  
 M. de Wergifosse,  T. A. Wesolowski,  A. White,  J. Witte,  A. Yamada,  
 Jun Yang,  K. Yao,  S. Yeganeh,  S. R. Yost,  Zhi-Qiang You,  A. Zech,  
 Igor Ying Zhang,  Xing Zhang,  Yan Zhao,  Ying Zhu,  B. R. Brooks,  
 G. K. L. Chan,  C. J. Cramer,  M. S. Gordon,  W. J. Hehre,  A. Klamt,  
 M. W. Schmidt,  C. D. Sherrill,  D. G. Truhlar,  A. Aspuru-Guzik,  R. Baer,  
 A. T. Bell,  N. A. Besley,  Jeng-Da Chai,  A. E. DePrince, III,  
 R. A. DiStasio Jr.,  A. Dreuw,  B. D. Dunietz,  T. R. Furlani,  
 Chao-Ping Hsu,  Yousung Jung,  Jing Kong,  D. S. Lambrecht,  WanZhen Liang,  
 C. Ochsenfeld,  V. A. Rassolov,  L. V. Slipchenko,  J. E. Subotnik,  
 T. Van Voorhis,  J. M. Herbert,  A. I. Krylov,  P. M. W. Gill,  M. Head-Gordon

 Contributors to earlier versions of Q-Chem not listed above: 
 R. D. Adamson,  B. Austin,  J. Baker,  G. J. O. Beran,  K. Brandhorst,  
 S. T. Brown,  E. F. C. Byrd,  A. K. Chakraborty,  C.-L. Cheng,  
 Siu Hung Chien,  D. M. Chipman,  D. L. Crittenden,  H. Dachsel,  
 R. J. Doerksen,  A. D. Dutoi,  L. Fusti-Molnar,  W. A. Goddard III,  
 A. Golubeva-Zadorozhnaya,  S. R. Gwaltney,  G. Hawkins,  A. Heyden,  
 S. Hirata,  G. Kedziora,  F. J. Keil,  C. Kelley,  Jihan Kim,  R. A. King,  
 R. Z. Khaliullin,  P. P. Korambath,  W. Kurlancheek,  A. M. Lee,  M. S. Lee,  
 S. V. Levchenko,  Ching Yeh Lin,  D. Liotard,  R. C. Lochan,  I. Lotan,  
 P. E. Maslen,  N. Nair,  D. P. O'Neill,  D. Neuhauser,  E. Neuscamman,  
 C. M. Oana,  R. Olson,  B. Peters,  R. Peverati,  P. A. Pieniazek,  
 Y. M. Rhee,  J. Ritchie,  M. A. Rohrdanz,  E. Rosta,  N. J. Russ,  
 H. F. Schaefer III,  N. E. Schultz,  N. Shenvi,  A. C. Simmonett,  A. Sodt,  
 D. Stuck,  K. S. Thanthiriwatte,  V. Vanovschi,  Tao Wang,  A. Warshel,  
 C. F. Williams,  Q. Wu,  X. Xu,  W. Zhang

 Please cite Q-Chem as follows:
 Y. Shao et al., Mol. Phys. 113, 184-215 (2015)
 DOI: 10.1080/00268976.2014.952696

 Q-Chem 5.1.1 for Intel X86 EM64T Linux

 Parts of Q-Chem use Armadillo 8.300.2 (Tropical Shenanigans).
 http://arma.sourceforge.net/

 Q-Chem begins on Fri Oct 30 16:52:32 2020  

Host: n0069.mhg0
0

     Scratch files written to /local/scratch/users/yhljason/CH2-t_HSE-HJS_aug-pc-4.inp20201030131812//
Input Ideriv = 2
Curr. Ideriv = -1
Max.  Ideriv = 2

Checking the input file for inconsistencies... 	...done.

--------------------------------------------------------------
User input:
--------------------------------------------------------------
$molecule
0 3
C1	0.0000	0.0000	0.1027
H2	0.0000	1.0042	-0.3081
H3	0.0000	-1.0042	-0.3081
$end

$rem
jobtype sp
method HSE-HJS
xc_grid 000099000590
basis aug-pc-4
max_scf_cycles 200
thresh 14
scf_convergence 8
scf_algorithm gdm
symmetry false
sym_ignore true
unrestricted True
gen_scfman true
internal_stability_iter 15
internal_stability_davidson_iter 200
mem_total 64000
mem_static 1500
n_frozen_core 0
$end



--------------------------------------------------------------
 ----------------------------------------------------------------
             Standard Nuclear Orientation (Angstroms)
    I     Atom           X                Y                Z
 ----------------------------------------------------------------
    1      C       0.0000000000     0.0000000000     0.1027000000
    2      H       0.0000000000     1.0042000000    -0.3081000000
    3      H       0.0000000000    -1.0042000000    -0.3081000000
 ----------------------------------------------------------------
 Nuclear Repulsion Energy =     6.1162592434 hartrees
 There are        5 alpha and        3 beta electrons
 Requested basis set is aug-pc-4
 There are 81 shells and 321 basis functions

 Total QAlloc Memory Limit  64000 MB
 Mega-Array Size      1467 MB
 MEM_STATIC part      1500 MB

                       Distance Matrix (Angstroms)
             C (  1)   H (  2)
   H (  2)  1.084977
   H (  3)  1.084977  2.008400
 
 A cutoff of  1.0D-14 yielded   3306 shell pairs
 There are     52358 function pairs (     93555 Cartesian)
 
 -------------------------------------------------------
 OpenMP Integral Computing Module                       
 Release: version 1.0, May 2013, Q-Chem Inc. Pittsburgh 
 -------------------------------------------------------
 Integral Job Info:
 Integral job number is                      11
 Integral operator is                         1
 short-range coefficients              25000000
 long-range coefficients                      0
 Omega coefficients                         110
 if combine SR and LR in K                    1
 Integral screening is                        0
 Integral computing path is                   2
 max size of driver memory is           6400000
 size of driver memory is               5498286
 size of scratch memory is             28955960
 max col of scratch BK array             194481
 max len of scratch array in speh3         5572
 max len of scratch index in speh4           72
 max int batch size is                      520
 min int batch size is                       52
 fixed nKL is                                24
 max L of basis functions is                  5
 order of int derivative is                   0
 number of shells is                         81
 number of basis is                         428
 number of cartesian basis is               428
 number of contracted shell pairs          3306
 number of primitive shell pairs           6115
 maxK2 (contraction) of shell pair          121
 max number of K2 of shell pair               1
 max number of CS2 of shell pair            441
 max number of PS2 of shell pair            441
 mem total for path MDJ                  900380
 -------------------------------------------------------
 Smallest overlap matrix eigenvalue = 2.72E-07
 Linear dependence detected in AO basis
 Number of orthogonalized atomic orbitals = 320
 Maximum deviation from orthogonality = 1.522E-10

 Scale SEOQF with 1.000000e-01/1.000000e-01/1.000000e-01

 Standard Electronic Orientation quadrupole field applied
 Nucleus-field energy     =     0.0000000001 hartrees
 Guess from superposition of atomic densities
 Warning:  Energy on first SCF cycle will be non-variational
 SAD guess density has 8.000000 electrons

 -----------------------------------------------------------------------
  General SCF calculation program by
  Eric Jon Sundstrom, Paul Horn, Yuezhi Mao, Dmitri Zuev, Alec White,
  David Stuck, Shaama M.S., Shane Yost, Joonho Lee, David Small,
  Daniel Levine, Susi Lehtola, Hugh Burton, Evgeny Epifanovsky
 -----------------------------------------------------------------------
 Exchange:     0.2500 Hartree-Fock + 1.0000 PBE + -0.2500 wPBE + LR-HF
 Correlation:  1.0000 PBE
 Using Euler-Maclaurin-Lebedev (99,590) quadrature formula
Running Object-Oriented UKS (UHF)
performing a single roothaan step with Fock from read density so that orbitals are available to all algorithms
energy of the guess density (C=0) -39.014255533204
We will preform up to 15 macro iterations over saddle points until a stable solution is found
Energy prior to optimization (guess energy) = -39.106029249427
Begin Timing: Total SCF Calculation
Begin Timing: SCF Single Stationary Point Calculation
begin iterations for algorithm: GDM          
the SCF tolerance is set to 1.00e-08
    1     -39.1060292494      5.01e-02     00000  Normal BFGS step
    2     -39.1127799069      2.87e-02     00000  Normal BFGS step
    3     -39.1178010642      4.42e-03     00000  Normal BFGS step
    4     -39.1178494700      8.05e-04     00000  Normal BFGS step
    5     -39.1178542399      1.74e-04     00000  Normal BFGS step
    6     -39.1178545016      6.63e-05     00000  Normal BFGS step
    7     -39.1178545085      7.53e-06     00000  Normal BFGS step
    8     -39.1178545087      1.02e-06     00000  Normal BFGS step
    9     -39.1178545088      1.73e-07     00000  Normal BFGS step
   10     -39.1178545088      1.41e-08     00000  Normal BFGS step
   11     -39.1178545088      2.49e-09     00000 Convergence criterion met
Timing for Single Stationary Point: 1149.00s (wall), 9107.34s (cpu)
Begin Timing: Stability
===================================================
Beginning Test for Internal Stability
===================================================
generating davidson guess vectors based on koopmans excitations
    1      3.63e-01     00000 Davidson Iteration
    2      1.04e-01     00000 Davidson Iteration
    3      6.06e-02     00000 Davidson Iteration
    4      2.24e-02     00000 Davidson Iteration
    5      2.06e-03     00000 Davidson Iteration
    6      2.37e-04     00000 Davidson Iteration
    7      5.39e-05     00000 Davidson Iteration
    8      2.84e-04     00000 Davidson Iteration
    9      4.27e-05     00000 Davidson Converged
converged_eigenvalues
   0.4225
   0.4932
Threshold for negative eigenvalues: -1.0e-05
solution was a local minimum (stable)
===================================================
End Test for Internal Stability
===================================================
Our SCF solution is stable!
Timing for Total SCF: 3576.00s (wall), 28381.21s (cpu)
 Total energy in the final basis set =      -39.1178545088
<S^2> =          2.007115368
    ==================================================
              The end of Object-Oriented SCFman       
    ==================================================
 
 --------------------------------------------------------------
 
                    Orbital Energies (a.u.)
 --------------------------------------------------------------
 
 Alpha MOs
 -- Occupied --
-10.258  -0.687  -0.455  -0.283  -0.249
 -- Virtual --
 -0.012   0.016   0.018   0.019   0.040   0.042   0.057   0.075
  0.079   0.080   0.080   0.084   0.087   0.101   0.132   0.133
  0.143   0.145   0.146   0.148   0.158   0.184   0.188   0.204
  0.212   0.218   0.226   0.227   0.233   0.243   0.245   0.248
  0.250   0.260   0.268   0.277   0.282   0.290   0.308   0.322
  0.334   0.337   0.339   0.353   0.355   0.366   0.372   0.381
  0.387   0.396   0.405   0.406   0.413   0.422   0.439   0.442
  0.445   0.449   0.467   0.479   0.481   0.488   0.496   0.501
  0.509   0.518   0.542   0.554   0.557   0.571   0.571   0.571
  0.582   0.583   0.611   0.612   0.615   0.626   0.637   0.653
  0.656   0.672   0.675   0.688   0.689   0.697   0.700   0.701
  0.726   0.727   0.737   0.753   0.764   0.777   0.797   0.801
  0.801   0.802   0.818   0.827   0.829   0.839   0.847   0.852
  0.861   0.869   0.880   0.891   0.957   0.988   0.993   1.026
  1.033   1.052   1.132   1.187   1.244   1.250   1.261   1.283
  1.351   1.357   1.393   1.465   1.468   1.508   1.540   1.542
  1.559   1.605   1.613   1.651   1.686   1.717   1.804   1.974
  2.044   2.056   2.102   2.105   2.150   2.199   2.231   2.243
  2.324   2.458   2.480   2.673   2.677   2.760   2.906   2.928
  3.059   3.122   3.163   3.213   3.350   3.474   3.485   3.486
  3.506   3.546   3.624   3.660   3.670   3.677   3.713   3.736
  3.796   3.926   3.986   4.116   4.125   4.162   4.196   4.300
  4.305   4.384   4.471   4.504   4.581   4.634   4.660   4.679
  4.745   4.794   4.800   4.970   5.044   5.130   5.194   5.226
  5.374   5.475   5.558   5.640   5.710   5.947   6.124   6.163
  6.406   6.511   6.519   6.588   6.777   6.806   7.020   7.485
  7.771   8.470   8.636   8.659   8.799   8.900   8.901   8.902
  8.970   9.079   9.123   9.149   9.230   9.490   9.743  10.345
 10.370  10.584  10.602  10.715  10.784  10.822  10.829  10.830
 10.855  10.902  10.934  10.998  11.114  11.505  11.579  11.601
 11.655  11.683  11.708  11.753  11.827  11.875  12.012  12.169
 12.343  12.373  12.376  12.411  12.438  12.443  12.510  12.593
 12.606  12.956  12.961  13.085  13.214  13.306  13.622  13.768
 13.810  14.113  14.500  15.039  15.096  15.451  15.682  16.167
 16.329  16.822  16.822  16.830  16.834  16.894  17.163  17.222
 17.309  17.334  18.134  18.266  18.679  18.702  19.146  19.590
 20.092  20.118  20.280  20.405  20.700  20.962  21.549  23.548
 23.700  23.720  23.768  25.570  25.591  32.162  32.181  32.512
 33.355  34.212  41.048  41.273  75.107  91.186  91.272  91.305
 91.339  92.481  92.521
 
 Beta MOs
 -- Occupied --
-10.226  -0.600  -0.433
 -- Virtual --
 -0.084  -0.062   0.002   0.021   0.030   0.032   0.045   0.050
  0.070   0.086   0.087   0.099   0.101   0.109   0.113   0.115
  0.141   0.146   0.155   0.159   0.159   0.162   0.170   0.206
  0.211   0.217   0.227   0.235   0.242   0.253   0.254   0.255
  0.256   0.274   0.276   0.281   0.285   0.294   0.304   0.310
  0.319   0.336   0.352   0.362   0.363   0.368   0.369   0.379
  0.384   0.401   0.410   0.411   0.424   0.424   0.432   0.439
  0.463   0.463   0.464   0.467   0.492   0.493   0.495   0.521
  0.523   0.531   0.534   0.535   0.559   0.572   0.593   0.598
  0.600   0.603   0.603   0.613   0.628   0.629   0.629   0.643
  0.656   0.672   0.673   0.691   0.693   0.710   0.711   0.719
  0.723   0.725   0.753   0.755   0.755   0.774   0.777   0.793
  0.812   0.813   0.818   0.820   0.833   0.845   0.847   0.861
  0.867   0.870   0.880   0.888   0.894   0.909   0.969   1.046
  1.054   1.066   1.068   1.079   1.182   1.219   1.259   1.278
  1.294   1.323   1.379   1.391   1.419   1.479   1.489   1.533
  1.557   1.572   1.587   1.622   1.625   1.686   1.714   1.765
  1.845   2.028   2.075   2.101   2.146   2.184   2.229   2.235
  2.293   2.306   2.363   2.502   2.520   2.694   2.729   2.833
  2.927   2.983   3.081   3.144   3.183   3.233   3.383   3.497
  3.503   3.509   3.522   3.557   3.653   3.678   3.692   3.697
  3.747   3.767   3.809   3.942   4.014   4.149   4.156   4.251
  4.262   4.402   4.403   4.408   4.516   4.555   4.633   4.684
  4.721   4.747   4.843   4.848   4.896   5.018   5.091   5.171
  5.246   5.282   5.433   5.545   5.622   5.679   5.743   5.995
  6.166   6.255   6.468   6.561   6.574   6.628   6.818   6.828
  7.085   7.523   7.787   8.476   8.647   8.668   8.804   8.904
  8.904   8.906   8.975   9.095   9.140   9.167   9.253   9.506
  9.771  10.484  10.512  10.607  10.626  10.794  10.844  10.906
 10.937  10.940  10.978  10.988  11.013  11.041  11.164  11.553
 11.613  11.648  11.760  11.772  11.778  11.806  11.966  12.009
 12.092  12.235  12.363  12.393  12.416  12.431  12.456  12.470
 12.535  12.654  12.673  12.979  13.005  13.148  13.232  13.388
 13.691  13.787  13.849  14.160  14.558  15.053  15.130  15.476
 15.712  16.201  16.344  16.821  16.822  16.831  16.834  16.938
 17.165  17.242  17.314  17.338  18.198  18.271  18.690  18.709
 19.157  19.639  20.094  20.127  20.297  20.414  20.708  20.971
 21.572  23.545  23.696  23.717  23.764  25.571  25.591  32.244
 32.261  32.562  33.401  34.248  41.045  41.270  75.136  91.180
 91.266  91.299  91.333  92.475  92.515
 --------------------------------------------------------------
 
          Ground-State Mulliken Net Atomic Charges

     Atom                 Charge (a.u.)    Spin (a.u.)
  --------------------------------------------------------
      1 C                    -0.206890       1.965339
      2 H                     0.103445       0.017330
      3 H                     0.103445       0.017330
  --------------------------------------------------------
  Sum of atomic charges =     0.000000
  Sum of spin   charges =     2.000000

 -----------------------------------------------------------------
                    Cartesian Multipole Moments
 -----------------------------------------------------------------
    Charge (ESU x 10^10)
                -0.0000
    Dipole Moment (Debye)
         X       0.0000      Y      -0.0000      Z      -0.5931
       Tot       0.5931
    Quadrupole Moments (Debye-Ang)
        XX      -8.3473     XY      -0.0000     YY      -5.8374
        XZ      -0.0000     YZ       0.0000     ZZ      -7.8313
    Octopole Moments (Debye-Ang^2)
       XXX       0.0000    XXY       0.0000    XYY      -0.0000
       YYY      -0.0000    XXZ      -0.3137    XYZ      -0.0000
       YYZ      -1.0025    XZZ       0.0000    YZZ      -0.0000
       ZZZ      -0.9304
    Hexadecapole Moments (Debye-Ang^3)
      XXXX     -11.1078   XXXY      -0.0000   XXYY      -4.7812
      XYYY      -0.0000   YYYY     -13.7193   XXXZ      -0.0000
      XXYZ      -0.0000   XYYZ       0.0000   YYYZ       0.0000
      XXZZ      -3.7421   XYZZ      -0.0000   YYZZ      -4.4161
      XZZZ      -0.0000   YZZZ       0.0000   ZZZZ     -11.2716
 -----------------------------------------------------------------
Archival summary:
1\1\n0069.mhg0\SP\ProcedureUnspecified\BasisUnspecified\12(3)\yhljason\FriOct3017:54:082020FriOct3017:54:082020\0\\#,ProcedureUnspecified,BasisUnspecified,\\0,3\C\H,1,1.08498\H,1,1.08498,2,135.503\\\@

 Total job time:  3696.18s(wall), 29313.29s(cpu) 
 Fri Oct 30 17:54:08 2020

        *************************************************************
        *                                                           *
        *  Thank you very much for using Q-Chem.  Have a nice day.  *
        *                                                           *
        *************************************************************


