Q-Chem Developer Version!
                  Welcome to Q-Chem
     A Quantum Leap Into The Future Of Chemistry


 Q-Chem 5.1, Q-Chem, Inc., Pleasanton, CA (2018)

 Yihan Shao,  Zhengting Gan,  E. Epifanovsky,  A. T. B. Gilbert,  M. Wormit,  
 J. Kussmann,  A. W. Lange,  A. Behn,  Jia Deng,  Xintian Feng,  D. Ghosh,  
 M. Goldey,  P. R. Horn,  L. D. Jacobson,  I. Kaliman,  T. Kus,  A. Landau,  
 Jie Liu,  E. I. Proynov,  R. M. Richard,  R. P. Steele,  E. J. Sundstrom,  
 H. L. Woodcock III,  P. M. Zimmerman,  D. Zuev,  B. Albrecht,  E. Alguire,  
 S. A. Baeppler,  D. Barton,  Z. Benda,  Y. A. Bernard,  E. J. Berquist,  
 K. B. Bravaya,  H. Burton,  D. Casanova,  Chun-Min Chang,  Yunqing Chen,  
 A. Chien,  K. D. Closser,  M. P. Coons,  S. Coriani,  S. Dasgupta,  
 A. L. Dempwolff,  M. Diedenhofen,  Hainam Do,  R. G. Edgar,  Po-Tung Fang,  
 S. Faraji,  S. Fatehi,  Qingguo Feng,  K. D. Fenk,  J. Fosso-Tande,  
 Qinghui Ge,  A. Ghysels,  G. Gidofalvi,  J. Gomes,  J. Gonthier,  A. Gunina,  
 D. Hait,  M. W. D. Hanson-Heine,  P. H. P. Harbach,  A. W. Hauser,  
 J. E. Herr,  E. G. Hohenstein,  Z. C. Holden,  Kerwin Hui,  B. C. Huynh,  
 T.-C. Jagau,  Hyunjun Ji,  B. Kaduk,  K. Khistyaev,  Jaehoon Kim,  
 P. Klunzinger,  K. Koh,  D. Kosenkov,  L. Koulias,  T. Kowalczyk,  
 C. M. Krauter,  A. Kunitsa,  Ka Un Lao,  A. Laurent,  K. V. Lawler,  
 Joonho Lee,  D. Lefrancois,  S. Lehtola,  D. S. Levine,  Yi-Pei Li,  
 You-Sheng Lin,  Fenglai Liu,  E. Livshits,  A. Luenser,  P. Manohar,  
 E. Mansoor,  S. F. Manzer,  Shan-Ping Mao,  Yuezhi Mao,  N. Mardirossian,  
 A. V. Marenich,  T. Markovich,  L. A. Martinez-Martinez,  S. A. Maurer,  
 N. J. Mayhall,  S. C. McKenzie,  J.-M. Mewes,  A. F. Morrison,  
 J. W. Mullinax,  K. Nanda,  T. S. Nguyen-Beck,  R. Olivares-Amaya,  
 J. A. Parkhill,  T. M. Perrine,  F. Plasser,  P. Pokhilko,  S. Prager,  
 A. Prociuk,  E. Ramos,  D. R. Rehn,  F. Rob,  M. Schneider,  N. Sergueev,  
 S. M. Sharada,  S. Sharma,  D. W. Small,  T. Stauch,  T. Stein,  
 Yu-Chuan Su,  A. J. W. Thom,  A. Tkatchenko,  T. Tsuchimochi,  N. M. Tubman,  
 L. Vogt,  M. L. Vidal,  O. Vydrov,  M. A. Watson,  J. Wenzel,  
 M. de Wergifosse,  T. A. Wesolowski,  A. White,  J. Witte,  A. Yamada,  
 Jun Yang,  K. Yao,  S. Yeganeh,  S. R. Yost,  Zhi-Qiang You,  A. Zech,  
 Igor Ying Zhang,  Xing Zhang,  Yan Zhao,  Ying Zhu,  B. R. Brooks,  
 G. K. L. Chan,  C. J. Cramer,  M. S. Gordon,  W. J. Hehre,  A. Klamt,  
 M. W. Schmidt,  C. D. Sherrill,  D. G. Truhlar,  A. Aspuru-Guzik,  R. Baer,  
 A. T. Bell,  N. A. Besley,  Jeng-Da Chai,  A. E. DePrince, III,  
 R. A. DiStasio Jr.,  A. Dreuw,  B. D. Dunietz,  T. R. Furlani,  
 Chao-Ping Hsu,  Yousung Jung,  Jing Kong,  D. S. Lambrecht,  WanZhen Liang,  
 C. Ochsenfeld,  V. A. Rassolov,  L. V. Slipchenko,  J. E. Subotnik,  
 T. Van Voorhis,  J. M. Herbert,  A. I. Krylov,  P. M. W. Gill,  M. Head-Gordon

 Contributors to earlier versions of Q-Chem not listed above: 
 R. D. Adamson,  B. Austin,  J. Baker,  G. J. O. Beran,  K. Brandhorst,  
 S. T. Brown,  E. F. C. Byrd,  A. K. Chakraborty,  C.-L. Cheng,  
 Siu Hung Chien,  D. M. Chipman,  D. L. Crittenden,  H. Dachsel,  
 R. J. Doerksen,  A. D. Dutoi,  L. Fusti-Molnar,  W. A. Goddard III,  
 A. Golubeva-Zadorozhnaya,  S. R. Gwaltney,  G. Hawkins,  A. Heyden,  
 S. Hirata,  G. Kedziora,  F. J. Keil,  C. Kelley,  Jihan Kim,  R. A. King,  
 R. Z. Khaliullin,  P. P. Korambath,  W. Kurlancheek,  A. M. Lee,  M. S. Lee,  
 S. V. Levchenko,  Ching Yeh Lin,  D. Liotard,  R. C. Lochan,  I. Lotan,  
 P. E. Maslen,  N. Nair,  D. P. O'Neill,  D. Neuhauser,  E. Neuscamman,  
 C. M. Oana,  R. Olson,  B. Peters,  R. Peverati,  P. A. Pieniazek,  
 Y. M. Rhee,  J. Ritchie,  M. A. Rohrdanz,  E. Rosta,  N. J. Russ,  
 H. F. Schaefer III,  N. E. Schultz,  N. Shenvi,  A. C. Simmonett,  A. Sodt,  
 D. Stuck,  K. S. Thanthiriwatte,  V. Vanovschi,  Tao Wang,  A. Warshel,  
 C. F. Williams,  Q. Wu,  X. Xu,  W. Zhang

 Please cite Q-Chem as follows:
 Y. Shao et al., Mol. Phys. 113, 184-215 (2015)
 DOI: 10.1080/00268976.2014.952696

 Q-Chem 5.1.1 for Intel X86 EM64T Linux

 Parts of Q-Chem use Armadillo 8.300.2 (Tropical Shenanigans).
 http://arma.sourceforge.net/

 Q-Chem begins on Fri Oct 30 17:47:42 2020  

Host: n0091.mhg0
0

     Scratch files written to /local/scratch/users/yhljason/F2_HSE-HJS_aug-pc-4.inp20201030131814//
Input Ideriv = 2
Curr. Ideriv = -1
Max.  Ideriv = 2

Checking the input file for inconsistencies... 	...done.

--------------------------------------------------------------
User input:
--------------------------------------------------------------
$molecule 
0 1
F1	0.0000	0.0000	0.0000
F2	0.0000	0.0000	1.4119
$end

$rem
jobtype sp
method HSE-HJS
xc_grid 000099000590
basis aug-pc-4
max_scf_cycles 200
thresh 14
scf_convergence 8
scf_algorithm gdm
symmetry false
sym_ignore true
unrestricted True
gen_scfman true
internal_stability_iter 15
internal_stability_davidson_iter 200
mem_total 64000
mem_static 1500
n_frozen_core 0
$end



--------------------------------------------------------------
 ----------------------------------------------------------------
             Standard Nuclear Orientation (Angstroms)
    I     Atom           X                Y                Z
 ----------------------------------------------------------------
    1      F       0.0000000000     0.0000000000     0.0000000000
    2      F       0.0000000000     0.0000000000     1.4119000000
 ----------------------------------------------------------------
 Nuclear Repulsion Energy =    30.3586331006 hartrees
 There are        9 alpha and        9 beta electrons
 Requested basis set is aug-pc-4
 There are 66 shells and 290 basis functions

 Total QAlloc Memory Limit  64000 MB
 Mega-Array Size      1467 MB
 MEM_STATIC part      1500 MB

                       Distance Matrix (Angstroms)
             F (  1)
   F (  2)  1.411900
 
 A cutoff of  1.0D-14 yielded   2183 shell pairs
 There are     42803 function pairs (     83665 Cartesian)
 
 -------------------------------------------------------
 OpenMP Integral Computing Module                       
 Release: version 1.0, May 2013, Q-Chem Inc. Pittsburgh 
 -------------------------------------------------------
 Integral Job Info:
 Integral job number is                      11
 Integral operator is                         1
 short-range coefficients              25000000
 long-range coefficients                      0
 Omega coefficients                         110
 if combine SR and LR in K                    1
 Integral screening is                        0
 Integral computing path is                   2
 max size of driver memory is           6400000
 size of driver memory is               5498286
 size of scratch memory is             28955960
 max col of scratch BK array             194481
 max len of scratch array in speh3         5572
 max len of scratch index in speh4           72
 max int batch size is                      520
 min int batch size is                       52
 fixed nKL is                                24
 max L of basis functions is                  5
 order of int derivative is                   0
 number of shells is                         66
 number of basis is                         404
 number of cartesian basis is               404
 number of contracted shell pairs          2183
 number of primitive shell pairs           5505
 maxK2 (contraction) of shell pair          121
 max number of K2 of shell pair               1
 max number of CS2 of shell pair            198
 max number of PS2 of shell pair            286
 mem total for path MDJ                  956866
 -------------------------------------------------------
 Smallest overlap matrix eigenvalue = 8.21E-06

 Scale SEOQF with 1.000000e-01/1.000000e-01/1.000000e-01

 Standard Electronic Orientation quadrupole field applied
 Nucleus-field energy     =    -0.0000000019 hartrees
 Guess from superposition of atomic densities
 Warning:  Energy on first SCF cycle will be non-variational
 SAD guess density has 18.000000 electrons

 -----------------------------------------------------------------------
  General SCF calculation program by
  Eric Jon Sundstrom, Paul Horn, Yuezhi Mao, Dmitri Zuev, Alec White,
  David Stuck, Shaama M.S., Shane Yost, Joonho Lee, David Small,
  Daniel Levine, Susi Lehtola, Hugh Burton, Evgeny Epifanovsky
 -----------------------------------------------------------------------
 Exchange:     0.2500 Hartree-Fock + 1.0000 PBE + -0.2500 wPBE + LR-HF
 Correlation:  1.0000 PBE
 Using Euler-Maclaurin-Lebedev (99,590) quadrature formula
Running Object-Oriented UKS (UHF)
performing a single roothaan step with Fock from read density so that orbitals are available to all algorithms
energy of the guess density (C=0) -199.438901844246
We will preform up to 15 macro iterations over saddle points until a stable solution is found
Energy prior to optimization (guess energy) = -199.407807938490
Begin Timing: Total SCF Calculation
Begin Timing: SCF Single Stationary Point Calculation
begin iterations for algorithm: GDM          
the SCF tolerance is set to 1.00e-08
    1    -199.4078079385      5.87e-02     00000  Normal BFGS step
    2    -199.4132777448      4.39e-02     00000  Normal BFGS step
    3    -199.4181160992      2.83e-03     00000  Normal BFGS step
    4    -199.4181579241      2.53e-03     00000  Normal BFGS step
    5    -199.4181893230      3.44e-05     00000  Normal BFGS step
    6    -199.4181893336      4.17e-06     00000  Normal BFGS step
    7    -199.4181893337      2.21e-07     00000  Normal BFGS step
    8    -199.4181893337      4.01e-08     00000  Normal BFGS step
    9    -199.4181893337      8.26e-08     00000  Normal BFGS step
   10    -199.4181893337      4.33e-08     00000  Normal BFGS step
   11    -199.4181893337      7.39e-09     00000 Convergence criterion met
Timing for Single Stationary Point: 1620.00s (wall), 12884.50s (cpu)
Begin Timing: Stability
===================================================
Beginning Test for Internal Stability
===================================================
generating davidson guess vectors based on koopmans excitations
    1      7.54e-01     00000 Davidson Iteration
    2      1.06e-01     00000 Davidson Iteration
    3      8.32e-03     00000 Davidson Iteration
    4      8.52e-04     00000 Davidson Iteration
    5      9.29e-04     00000 Davidson Iteration
    6      1.67e-04     00000 Davidson Iteration
    7      4.94e-05     00000 Davidson Iteration
    8      5.69e-05     00000 Davidson Converged
converged_eigenvalues
   0.1405
   0.3776
Threshold for negative eigenvalues: -1.0e-05
solution was a local minimum (stable)
===================================================
End Test for Internal Stability
===================================================
Our SCF solution is stable!
Timing for Total SCF: 4334.00s (wall), 34464.04s (cpu)
 Total energy in the final basis set =     -199.4181893337
<S^2> =         -0.000000000
    ==================================================
              The end of Object-Oriented SCFman       
    ==================================================
 
 --------------------------------------------------------------
 
                    Orbital Energies (a.u.)
 --------------------------------------------------------------
 
 Alpha MOs
 -- Occupied --
-24.868 -24.868  -1.370  -1.129  -0.608  -0.549  -0.549  -0.419
 -0.419
 -- Virtual --
 -0.162   0.033   0.038   0.047   0.047   0.082   0.082   0.083
  0.151   0.212   0.212   0.213   0.213   0.253   0.253   0.254
  0.255   0.270   0.270   0.283   0.283   0.361   0.390   0.390
  0.398   0.447   0.447   0.496   0.496   0.535   0.569   0.569
  0.574   0.574   0.588   0.620   0.620   0.666   0.666   0.723
  0.723   0.739   0.739   0.760   0.765   0.765   0.765   0.824
  0.824   0.826   0.845   0.845   0.897   0.897   0.912   0.926
  0.926   0.943   0.943   1.054   1.054   1.063   1.063   1.099
  1.130   1.130   1.138   1.138   1.167   1.167   1.231   1.249
  1.249   1.263   1.263   1.306   1.306   1.309   1.309   1.321
  1.321   1.390   1.390   1.463   1.477   1.507   1.507   1.513
  1.513   1.520   1.520   1.522   1.522   1.690   1.717   1.779
  1.779   1.902   1.998   1.998   2.058   2.058   2.084   2.245
  2.245   2.255   2.292   2.292   2.354   2.354   2.412   2.473
  2.473   2.478   2.478   2.503   2.727   2.727   2.830   2.830
  2.888   2.888   2.967   2.967   3.237   3.361   3.578   3.578
  4.422   5.151   5.200   5.200   5.230   5.230   5.288   5.401
  5.401   5.443   5.443   5.475   5.589   5.589   5.697   5.922
  5.922   5.955   5.955   6.002   6.028   6.028   6.262   6.262
  6.436   6.436   6.492   6.492   6.536   6.777   6.777   6.796
  6.898   6.898   6.975   6.975   7.148   7.148   7.217   7.217
  7.483   7.483   7.524   7.693   7.693   8.310   8.310   9.216
  9.650   9.650  10.484  11.924  11.924  12.033  12.110  12.110
 12.316  12.316  12.367  12.367  12.410  12.410  12.444  12.444
 12.666  12.666  12.772  12.772  12.787  12.787  12.848  12.848
 12.939  12.951  12.951  13.156  13.196  13.196  13.901  13.901
 14.041  14.041  14.263  14.263  14.314  14.344  14.716  14.716
 14.904  14.991  14.991  15.123  15.123  15.124  15.137  15.137
 15.284  15.284  15.459  15.482  15.482  15.945  16.860  16.860
 18.979  20.054  20.054  20.087  20.087  20.221  20.221  20.262
 20.262  20.415  20.415  20.700  20.700  21.087  21.087  22.144
 22.477  22.477  23.123  30.475  30.475  30.565  30.565  30.620
 30.620  30.676  30.759  30.759  32.245  41.657  41.657  41.798
 41.945  41.945  42.318  42.322  44.314  91.605  91.605  91.654
 91.654  91.700  91.700  91.733  91.771  91.771  92.726 201.634
202.855
 
 Beta MOs
 -- Occupied --
-24.868 -24.868  -1.370  -1.129  -0.608  -0.549  -0.549  -0.419
 -0.419
 -- Virtual --
 -0.162   0.033   0.038   0.047   0.047   0.082   0.082   0.083
  0.151   0.212   0.212   0.213   0.213   0.253   0.253   0.254
  0.255   0.270   0.270   0.283   0.283   0.361   0.390   0.390
  0.398   0.447   0.447   0.496   0.496   0.535   0.569   0.569
  0.574   0.574   0.588   0.620   0.620   0.666   0.666   0.723
  0.723   0.739   0.739   0.760   0.765   0.765   0.765   0.824
  0.824   0.826   0.845   0.845   0.897   0.897   0.912   0.926
  0.926   0.943   0.943   1.054   1.054   1.063   1.063   1.099
  1.130   1.130   1.138   1.138   1.167   1.167   1.231   1.249
  1.249   1.263   1.263   1.306   1.306   1.309   1.309   1.321
  1.321   1.390   1.390   1.463   1.477   1.507   1.507   1.513
  1.513   1.520   1.520   1.522   1.522   1.690   1.717   1.779
  1.779   1.902   1.998   1.998   2.058   2.058   2.084   2.245
  2.245   2.255   2.292   2.292   2.354   2.354   2.412   2.473
  2.473   2.478   2.478   2.503   2.727   2.727   2.830   2.830
  2.888   2.888   2.967   2.967   3.237   3.361   3.578   3.578
  4.422   5.151   5.200   5.200   5.230   5.230   5.288   5.401
  5.401   5.443   5.443   5.475   5.589   5.589   5.697   5.922
  5.922   5.955   5.955   6.002   6.028   6.028   6.262   6.262
  6.436   6.436   6.492   6.492   6.536   6.777   6.777   6.796
  6.898   6.898   6.975   6.975   7.148   7.148   7.217   7.217
  7.483   7.483   7.524   7.693   7.693   8.310   8.310   9.216
  9.650   9.650  10.484  11.924  11.924  12.033  12.110  12.110
 12.316  12.316  12.367  12.367  12.410  12.410  12.444  12.444
 12.666  12.666  12.772  12.772  12.787  12.787  12.848  12.848
 12.939  12.951  12.951  13.156  13.196  13.196  13.901  13.901
 14.041  14.041  14.263  14.263  14.314  14.344  14.716  14.716
 14.904  14.991  14.991  15.123  15.123  15.124  15.137  15.137
 15.284  15.284  15.459  15.482  15.482  15.945  16.860  16.860
 18.979  20.054  20.054  20.087  20.087  20.221  20.221  20.262
 20.262  20.415  20.415  20.700  20.700  21.087  21.087  22.144
 22.477  22.477  23.123  30.475  30.475  30.565  30.565  30.620
 30.620  30.676  30.759  30.759  32.245  41.657  41.657  41.798
 41.945  41.945  42.318  42.322  44.314  91.605  91.605  91.654
 91.654  91.700  91.700  91.733  91.771  91.771  92.726 201.634
202.855
 --------------------------------------------------------------
 
          Ground-State Mulliken Net Atomic Charges

     Atom                 Charge (a.u.)    Spin (a.u.)
  --------------------------------------------------------
      1 F                    -0.000000      -0.000000
      2 F                     0.000000       0.000000
  --------------------------------------------------------
  Sum of atomic charges =    -0.000000
  Sum of spin   charges =     0.000000

 -----------------------------------------------------------------
                    Cartesian Multipole Moments
 -----------------------------------------------------------------
    Charge (ESU x 10^10)
                -0.0000
    Dipole Moment (Debye)
         X      -0.0000      Y      -0.0000      Z       0.0000
       Tot       0.0000
    Quadrupole Moments (Debye-Ang)
        XX      -9.6712     XY       0.0000     YY      -9.6712
        XZ       0.0000     YZ       0.0000     ZZ      -8.8447
    Octopole Moments (Debye-Ang^2)
       XXX      -0.0000    XXY       0.0000    XYY       0.0000
       YYY       0.0000    XXZ      -6.8274    XYZ       0.0000
       YYZ      -6.8274    XZZ       0.0000    YZZ       0.0000
       ZZZ     -18.7318
    Hexadecapole Moments (Debye-Ang^3)
      XXXX      -6.0951   XXXY      -0.0000   XXYY      -2.0317
      XYYY      -0.0000   YYYY      -6.0951   XXXZ       0.0000
      XXYZ      -0.0000   XYYZ       0.0000   YYYZ       0.0000
      XXZZ     -11.6694   XYZZ      -0.0000   YYZZ     -11.6694
      XZZZ      -0.0000   YZZZ       0.0000   ZZZZ     -56.6074
 -----------------------------------------------------------------
Archival summary:
1\1\n0091.mhg0\SP\ProcedureUnspecified\BasisUnspecified\2\yhljason\FriOct3019:02:432020FriOct3019:02:432020\0\\#,ProcedureUnspecified,BasisUnspecified,\\0,1\F\F,1,1.4119\\\@

 Total job time:  4501.33s(wall), 35746.57s(cpu) 
 Fri Oct 30 19:02:43 2020

        *************************************************************
        *                                                           *
        *  Thank you very much for using Q-Chem.  Have a nice day.  *
        *                                                           *
        *************************************************************


