Q-Chem Developer Version!
                  Welcome to Q-Chem
     A Quantum Leap Into The Future Of Chemistry


 Q-Chem 5.1, Q-Chem, Inc., Pleasanton, CA (2018)

 Yihan Shao,  Zhengting Gan,  E. Epifanovsky,  A. T. B. Gilbert,  M. Wormit,  
 J. Kussmann,  A. W. Lange,  A. Behn,  Jia Deng,  Xintian Feng,  D. Ghosh,  
 M. Goldey,  P. R. Horn,  L. D. Jacobson,  I. Kaliman,  T. Kus,  A. Landau,  
 Jie Liu,  E. I. Proynov,  R. M. Richard,  R. P. Steele,  E. J. Sundstrom,  
 H. L. Woodcock III,  P. M. Zimmerman,  D. Zuev,  B. Albrecht,  E. Alguire,  
 S. A. Baeppler,  D. Barton,  Z. Benda,  Y. A. Bernard,  E. J. Berquist,  
 K. B. Bravaya,  H. Burton,  D. Casanova,  Chun-Min Chang,  Yunqing Chen,  
 A. Chien,  K. D. Closser,  M. P. Coons,  S. Coriani,  S. Dasgupta,  
 A. L. Dempwolff,  M. Diedenhofen,  Hainam Do,  R. G. Edgar,  Po-Tung Fang,  
 S. Faraji,  S. Fatehi,  Qingguo Feng,  K. D. Fenk,  J. Fosso-Tande,  
 Qinghui Ge,  A. Ghysels,  G. Gidofalvi,  J. Gomes,  J. Gonthier,  A. Gunina,  
 D. Hait,  M. W. D. Hanson-Heine,  P. H. P. Harbach,  A. W. Hauser,  
 J. E. Herr,  E. G. Hohenstein,  Z. C. Holden,  Kerwin Hui,  B. C. Huynh,  
 T.-C. Jagau,  Hyunjun Ji,  B. Kaduk,  K. Khistyaev,  Jaehoon Kim,  
 P. Klunzinger,  K. Koh,  D. Kosenkov,  L. Koulias,  T. Kowalczyk,  
 C. M. Krauter,  A. Kunitsa,  Ka Un Lao,  A. Laurent,  K. V. Lawler,  
 Joonho Lee,  D. Lefrancois,  S. Lehtola,  D. S. Levine,  Yi-Pei Li,  
 You-Sheng Lin,  Fenglai Liu,  E. Livshits,  A. Luenser,  P. Manohar,  
 E. Mansoor,  S. F. Manzer,  Shan-Ping Mao,  Yuezhi Mao,  N. Mardirossian,  
 A. V. Marenich,  T. Markovich,  L. A. Martinez-Martinez,  S. A. Maurer,  
 N. J. Mayhall,  S. C. McKenzie,  J.-M. Mewes,  A. F. Morrison,  
 J. W. Mullinax,  K. Nanda,  T. S. Nguyen-Beck,  R. Olivares-Amaya,  
 J. A. Parkhill,  T. M. Perrine,  F. Plasser,  P. Pokhilko,  S. Prager,  
 A. Prociuk,  E. Ramos,  D. R. Rehn,  F. Rob,  M. Schneider,  N. Sergueev,  
 S. M. Sharada,  S. Sharma,  D. W. Small,  T. Stauch,  T. Stein,  
 Yu-Chuan Su,  A. J. W. Thom,  A. Tkatchenko,  T. Tsuchimochi,  N. M. Tubman,  
 L. Vogt,  M. L. Vidal,  O. Vydrov,  M. A. Watson,  J. Wenzel,  
 M. de Wergifosse,  T. A. Wesolowski,  A. White,  J. Witte,  A. Yamada,  
 Jun Yang,  K. Yao,  S. Yeganeh,  S. R. Yost,  Zhi-Qiang You,  A. Zech,  
 Igor Ying Zhang,  Xing Zhang,  Yan Zhao,  Ying Zhu,  B. R. Brooks,  
 G. K. L. Chan,  C. J. Cramer,  M. S. Gordon,  W. J. Hehre,  A. Klamt,  
 M. W. Schmidt,  C. D. Sherrill,  D. G. Truhlar,  A. Aspuru-Guzik,  R. Baer,  
 A. T. Bell,  N. A. Besley,  Jeng-Da Chai,  A. E. DePrince, III,  
 R. A. DiStasio Jr.,  A. Dreuw,  B. D. Dunietz,  T. R. Furlani,  
 Chao-Ping Hsu,  Yousung Jung,  Jing Kong,  D. S. Lambrecht,  WanZhen Liang,  
 C. Ochsenfeld,  V. A. Rassolov,  L. V. Slipchenko,  J. E. Subotnik,  
 T. Van Voorhis,  J. M. Herbert,  A. I. Krylov,  P. M. W. Gill,  M. Head-Gordon

 Contributors to earlier versions of Q-Chem not listed above: 
 R. D. Adamson,  B. Austin,  J. Baker,  G. J. O. Beran,  K. Brandhorst,  
 S. T. Brown,  E. F. C. Byrd,  A. K. Chakraborty,  C.-L. Cheng,  
 Siu Hung Chien,  D. M. Chipman,  D. L. Crittenden,  H. Dachsel,  
 R. J. Doerksen,  A. D. Dutoi,  L. Fusti-Molnar,  W. A. Goddard III,  
 A. Golubeva-Zadorozhnaya,  S. R. Gwaltney,  G. Hawkins,  A. Heyden,  
 S. Hirata,  G. Kedziora,  F. J. Keil,  C. Kelley,  Jihan Kim,  R. A. King,  
 R. Z. Khaliullin,  P. P. Korambath,  W. Kurlancheek,  A. M. Lee,  M. S. Lee,  
 S. V. Levchenko,  Ching Yeh Lin,  D. Liotard,  R. C. Lochan,  I. Lotan,  
 P. E. Maslen,  N. Nair,  D. P. O'Neill,  D. Neuhauser,  E. Neuscamman,  
 C. M. Oana,  R. Olson,  B. Peters,  R. Peverati,  P. A. Pieniazek,  
 Y. M. Rhee,  J. Ritchie,  M. A. Rohrdanz,  E. Rosta,  N. J. Russ,  
 H. F. Schaefer III,  N. E. Schultz,  N. Shenvi,  A. C. Simmonett,  A. Sodt,  
 D. Stuck,  K. S. Thanthiriwatte,  V. Vanovschi,  Tao Wang,  A. Warshel,  
 C. F. Williams,  Q. Wu,  X. Xu,  W. Zhang

 Please cite Q-Chem as follows:
 Y. Shao et al., Mol. Phys. 113, 184-215 (2015)
 DOI: 10.1080/00268976.2014.952696

 Q-Chem 5.1.1 for Intel X86 EM64T Linux

 Parts of Q-Chem use Armadillo 8.300.2 (Tropical Shenanigans).
 http://arma.sourceforge.net/

 Q-Chem begins on Fri Oct 30 17:50:14 2020  

Host: n0097.mhg0
0

     Scratch files written to /local/scratch/users/yhljason/H2_HSE-HJS_aug-pc-4.inp20201030131814//
Input Ideriv = 2
Curr. Ideriv = -1
Max.  Ideriv = 2

Checking the input file for inconsistencies... 	...done.

--------------------------------------------------------------
User input:
--------------------------------------------------------------
$molecule
0 1
H1 0.0000   0.0000   0.0000
H2 0.0000   0.0000   0.7414
$end

$rem
jobtype sp
method HSE-HJS
xc_grid 000099000590
basis aug-pc-4
max_scf_cycles 200
thresh 14
scf_convergence 8
scf_algorithm gdm
symmetry false
sym_ignore true
unrestricted True
gen_scfman true
internal_stability_iter 15
internal_stability_davidson_iter 200
mem_total 64000
mem_static 1500
n_frozen_core 0
$end



--------------------------------------------------------------
 ----------------------------------------------------------------
             Standard Nuclear Orientation (Angstroms)
    I     Atom           X                Y                Z
 ----------------------------------------------------------------
    1      H       0.0000000000     0.0000000000     0.0000000000
    2      H       0.0000000000     0.0000000000     0.7414000000
 ----------------------------------------------------------------
 Nuclear Repulsion Energy =     0.7137539935 hartrees
 There are        1 alpha and        1 beta electrons
 Requested basis set is aug-pc-4
 There are 48 shells and 176 basis functions

 Total QAlloc Memory Limit  64000 MB
 Mega-Array Size      1467 MB
 MEM_STATIC part      1500 MB

                       Distance Matrix (Angstroms)
             H (  1)
   H (  2)  0.741400
 
 A cutoff of  1.0D-14 yielded   1176 shell pairs
 There are     15968 function pairs (     26503 Cartesian)
 
 -------------------------------------------------------
 OpenMP Integral Computing Module                       
 Release: version 1.0, May 2013, Q-Chem Inc. Pittsburgh 
 -------------------------------------------------------
 Integral Job Info:
 Integral job number is                      11
 Integral operator is                         1
 short-range coefficients              25000000
 long-range coefficients                      0
 Omega coefficients                         110
 if combine SR and LR in K                    1
 Integral screening is                        0
 Integral computing path is                   2
 max size of driver memory is           3200000
 size of driver memory is               1704330
 size of scratch memory is              6471000
 max col of scratch BK array              50625
 max len of scratch array in speh3         2114
 max len of scratch index in speh4           50
 max int batch size is                      520
 min int batch size is                       52
 fixed nKL is                                52
 max L of basis functions is                  4
 order of int derivative is                   0
 number of shells is                         48
 number of basis is                         226
 number of cartesian basis is               226
 number of contracted shell pairs          1176
 number of primitive shell pairs           1595
 maxK2 (contraction) of shell pair           25
 max number of K2 of shell pair               1
 max number of CS2 of shell pair            196
 max number of PS2 of shell pair            196
 mem total for path MDJ                  660646
 -------------------------------------------------------
 Smallest overlap matrix eigenvalue = 2.14E-06

 Scale SEOQF with 1.000000e-01/1.000000e-01/1.000000e-01

 Standard Electronic Orientation quadrupole field applied
 Guess from superposition of atomic densities
 Warning:  Energy on first SCF cycle will be non-variational
 SAD guess density has 2.000000 electrons

 -----------------------------------------------------------------------
  General SCF calculation program by
  Eric Jon Sundstrom, Paul Horn, Yuezhi Mao, Dmitri Zuev, Alec White,
  David Stuck, Shaama M.S., Shane Yost, Joonho Lee, David Small,
  Daniel Levine, Susi Lehtola, Hugh Burton, Evgeny Epifanovsky
 -----------------------------------------------------------------------
 Exchange:     0.2500 Hartree-Fock + 1.0000 PBE + -0.2500 wPBE + LR-HF
 Correlation:  1.0000 PBE
 Using Euler-Maclaurin-Lebedev (99,590) quadrature formula
Running Object-Oriented UKS (UHF)
performing a single roothaan step with Fock from read density so that orbitals are available to all algorithms
energy of the guess density (C=0) -0.962169266696
We will preform up to 15 macro iterations over saddle points until a stable solution is found
Energy prior to optimization (guess energy) = -1.167237404218
Begin Timing: Total SCF Calculation
Begin Timing: SCF Single Stationary Point Calculation
begin iterations for algorithm: GDM          
the SCF tolerance is set to 1.00e-08
    1      -1.1672374042      2.04e-02     00000  Normal BFGS step
    2      -1.1686536198      4.16e-03     00000  Normal BFGS step
    3      -1.1687177943      6.85e-05     00000  Normal BFGS step
    4      -1.1687178080      2.66e-06     00000  Normal BFGS step
    5      -1.1687178080      7.61e-08     00000  Normal BFGS step
    6      -1.1687178080      4.03e-09     00000 Convergence criterion met
Timing for Single Stationary Point: 28.00s (wall), 223.81s (cpu)
Begin Timing: Stability
===================================================
Beginning Test for Internal Stability
===================================================
generating davidson guess vectors based on koopmans excitations
    1      3.84e-01     00000 Davidson Iteration
    2      1.53e-01     00000 Davidson Iteration
    3      1.48e-02     00000 Davidson Iteration
    4      1.12e-02     00000 Davidson Iteration
    5      4.30e-04     00000 Davidson Iteration
    6      8.72e-05     00000 Davidson Iteration
    7      1.00e-03     00000 Davidson Iteration
    8      2.27e-04     00000 Davidson Iteration
    9      7.51e-05     00000 Davidson Converged
converged_eigenvalues
   0.7910
   0.6163
Threshold for negative eigenvalues: -1.0e-05
solution was a local minimum (stable)
===================================================
End Test for Internal Stability
===================================================
Our SCF solution is stable!
Timing for Total SCF: 157.00s (wall), 1232.85s (cpu)
 Total energy in the final basis set =       -1.1687178080
<S^2> =          0.000000000
    ==================================================
              The end of Object-Oriented SCFman       
    ==================================================
 
 --------------------------------------------------------------
 
                    Orbital Energies (a.u.)
 --------------------------------------------------------------
 
 Alpha MOs
 -- Occupied --
 -0.426
 -- Virtual --
  0.011   0.014   0.053   0.053   0.054   0.090   0.105   0.105
  0.124   0.149   0.159   0.159   0.207   0.211   0.211   0.213
  0.213   0.266   0.276   0.276   0.307   0.307   0.320   0.324
  0.324   0.347   0.347   0.360   0.361   0.361   0.411   0.411
  0.426   0.482   0.511   0.511   0.517   0.517   0.527   0.527
  0.544   0.544   0.602   0.604   0.615   0.615   0.626   0.626
  0.628   0.628   0.629   0.629   0.641   0.641   0.641   0.774
  0.774   0.784   0.784   0.796   0.980   1.125   1.125   1.145
  1.145   1.226   1.297   1.300   1.300   1.308   1.308   1.352
  1.352   1.394   1.720   2.001   2.057   2.057   2.827   2.873
  2.873   2.993   2.993   3.044   3.044   3.158   3.206   3.238
  3.316   3.316   3.342   3.342   3.378   3.378   3.976   3.976
  4.145   4.145   4.218   4.369   4.369   4.886   5.076   5.076
  5.145   5.145   5.188   5.755   5.755   6.072   6.417   7.813
  7.964   7.964   8.595   8.595   8.624   8.624   9.154   9.154
  9.407   9.407  10.013  10.274  10.860  10.860  11.363  11.507
 11.752  11.752  11.940  11.940  12.793  12.793  13.045  13.045
 13.651  14.204  14.204  14.746  15.856  15.856  16.229  16.229
 16.435  16.435  17.304  17.304  17.621  17.621  18.414  19.059
 19.192  19.192  20.325  20.325  21.922  22.354  22.354  22.568
 22.568  23.121  23.121  24.921  27.512  27.512  34.504  40.695
 41.767  90.928  90.928  92.454  92.517  92.517  98.209
 
 Beta MOs
 -- Occupied --
 -0.426
 -- Virtual --
  0.011   0.014   0.053   0.053   0.054   0.090   0.105   0.105
  0.124   0.149   0.159   0.159   0.207   0.211   0.211   0.213
  0.213   0.266   0.276   0.276   0.307   0.307   0.320   0.324
  0.324   0.347   0.347   0.360   0.361   0.361   0.411   0.411
  0.426   0.482   0.511   0.511   0.517   0.517   0.527   0.527
  0.544   0.544   0.602   0.604   0.615   0.615   0.626   0.626
  0.628   0.628   0.629   0.629   0.641   0.641   0.641   0.774
  0.774   0.784   0.784   0.796   0.980   1.125   1.125   1.145
  1.145   1.226   1.297   1.300   1.300   1.308   1.308   1.352
  1.352   1.394   1.720   2.001   2.057   2.057   2.827   2.873
  2.873   2.993   2.993   3.044   3.044   3.158   3.206   3.238
  3.316   3.316   3.342   3.342   3.378   3.378   3.976   3.976
  4.145   4.145   4.218   4.369   4.369   4.886   5.076   5.076
  5.145   5.145   5.188   5.755   5.755   6.072   6.417   7.813
  7.964   7.964   8.595   8.595   8.624   8.624   9.154   9.154
  9.407   9.407  10.013  10.274  10.860  10.860  11.363  11.507
 11.752  11.752  11.940  11.940  12.793  12.793  13.045  13.045
 13.651  14.204  14.204  14.746  15.856  15.856  16.229  16.229
 16.435  16.435  17.304  17.304  17.621  17.621  18.414  19.059
 19.192  19.192  20.325  20.325  21.922  22.354  22.354  22.568
 22.568  23.121  23.121  24.921  27.512  27.512  34.504  40.695
 41.767  90.928  90.928  92.454  92.517  92.517  98.209
 --------------------------------------------------------------
 
          Ground-State Mulliken Net Atomic Charges

     Atom                 Charge (a.u.)    Spin (a.u.)
  --------------------------------------------------------
      1 H                    -0.000000       0.000000
      2 H                     0.000000      -0.000000
  --------------------------------------------------------
  Sum of atomic charges =     0.000000
  Sum of spin   charges =     0.000000

 -----------------------------------------------------------------
                    Cartesian Multipole Moments
 -----------------------------------------------------------------
    Charge (ESU x 10^10)
                -0.0000
    Dipole Moment (Debye)
         X       0.0000      Y       0.0000      Z       0.0000
       Tot       0.0000
    Quadrupole Moments (Debye-Ang)
        XX      -2.0915     XY       0.0000     YY      -2.0915
        XZ       0.0000     YZ       0.0000     ZZ      -1.4847
    Octopole Moments (Debye-Ang^2)
       XXX       0.0000    XXY       0.0000    XYY       0.0000
       YYY      -0.0000    XXZ      -0.7753    XYZ      -0.0000
       YYZ      -0.7753    XZZ       0.0000    YZZ       0.0000
       ZZZ      -1.6512
    Hexadecapole Moments (Debye-Ang^3)
      XXXX      -2.1390   XXXY      -0.0000   XXYY      -0.7130
      XYYY      -0.0000   YYYY      -2.1390   XXXZ       0.0000
      XXYZ       0.0000   XYYZ      -0.0000   YYYZ      -0.0000
      XXZZ      -1.1397   XYZZ       0.0000   YYZZ      -1.1397
      XZZZ      -0.0000   YZZZ      -0.0000   ZZZZ      -4.0960
 -----------------------------------------------------------------
Archival summary:
1\1\n0097.mhg0\SP\ProcedureUnspecified\BasisUnspecified\2\yhljason\FriOct3017:52:582020FriOct3017:52:582020\0\\#,ProcedureUnspecified,BasisUnspecified,\\0,1\H\H,1,0.7414\\\@

 Total job time:  163.50s(wall), 1286.95s(cpu) 
 Fri Oct 30 17:52:58 2020

        *************************************************************
        *                                                           *
        *  Thank you very much for using Q-Chem.  Have a nice day.  *
        *                                                           *
        *************************************************************


