Q-Chem Developer Version!
                  Welcome to Q-Chem
     A Quantum Leap Into The Future Of Chemistry


 Q-Chem 5.1, Q-Chem, Inc., Pleasanton, CA (2018)

 Yihan Shao,  Zhengting Gan,  E. Epifanovsky,  A. T. B. Gilbert,  M. Wormit,  
 J. Kussmann,  A. W. Lange,  A. Behn,  Jia Deng,  Xintian Feng,  D. Ghosh,  
 M. Goldey,  P. R. Horn,  L. D. Jacobson,  I. Kaliman,  T. Kus,  A. Landau,  
 Jie Liu,  E. I. Proynov,  R. M. Richard,  R. P. Steele,  E. J. Sundstrom,  
 H. L. Woodcock III,  P. M. Zimmerman,  D. Zuev,  B. Albrecht,  E. Alguire,  
 S. A. Baeppler,  D. Barton,  Z. Benda,  Y. A. Bernard,  E. J. Berquist,  
 K. B. Bravaya,  H. Burton,  D. Casanova,  Chun-Min Chang,  Yunqing Chen,  
 A. Chien,  K. D. Closser,  M. P. Coons,  S. Coriani,  S. Dasgupta,  
 A. L. Dempwolff,  M. Diedenhofen,  Hainam Do,  R. G. Edgar,  Po-Tung Fang,  
 S. Faraji,  S. Fatehi,  Qingguo Feng,  K. D. Fenk,  J. Fosso-Tande,  
 Qinghui Ge,  A. Ghysels,  G. Gidofalvi,  J. Gomes,  J. Gonthier,  A. Gunina,  
 D. Hait,  M. W. D. Hanson-Heine,  P. H. P. Harbach,  A. W. Hauser,  
 J. E. Herr,  E. G. Hohenstein,  Z. C. Holden,  Kerwin Hui,  B. C. Huynh,  
 T.-C. Jagau,  Hyunjun Ji,  B. Kaduk,  K. Khistyaev,  Jaehoon Kim,  
 P. Klunzinger,  K. Koh,  D. Kosenkov,  L. Koulias,  T. Kowalczyk,  
 C. M. Krauter,  A. Kunitsa,  Ka Un Lao,  A. Laurent,  K. V. Lawler,  
 Joonho Lee,  D. Lefrancois,  S. Lehtola,  D. S. Levine,  Yi-Pei Li,  
 You-Sheng Lin,  Fenglai Liu,  E. Livshits,  A. Luenser,  P. Manohar,  
 E. Mansoor,  S. F. Manzer,  Shan-Ping Mao,  Yuezhi Mao,  N. Mardirossian,  
 A. V. Marenich,  T. Markovich,  L. A. Martinez-Martinez,  S. A. Maurer,  
 N. J. Mayhall,  S. C. McKenzie,  J.-M. Mewes,  A. F. Morrison,  
 J. W. Mullinax,  K. Nanda,  T. S. Nguyen-Beck,  R. Olivares-Amaya,  
 J. A. Parkhill,  T. M. Perrine,  F. Plasser,  P. Pokhilko,  S. Prager,  
 A. Prociuk,  E. Ramos,  D. R. Rehn,  F. Rob,  M. Schneider,  N. Sergueev,  
 S. M. Sharada,  S. Sharma,  D. W. Small,  T. Stauch,  T. Stein,  
 Yu-Chuan Su,  A. J. W. Thom,  A. Tkatchenko,  T. Tsuchimochi,  N. M. Tubman,  
 L. Vogt,  M. L. Vidal,  O. Vydrov,  M. A. Watson,  J. Wenzel,  
 M. de Wergifosse,  T. A. Wesolowski,  A. White,  J. Witte,  A. Yamada,  
 Jun Yang,  K. Yao,  S. Yeganeh,  S. R. Yost,  Zhi-Qiang You,  A. Zech,  
 Igor Ying Zhang,  Xing Zhang,  Yan Zhao,  Ying Zhu,  B. R. Brooks,  
 G. K. L. Chan,  C. J. Cramer,  M. S. Gordon,  W. J. Hehre,  A. Klamt,  
 M. W. Schmidt,  C. D. Sherrill,  D. G. Truhlar,  A. Aspuru-Guzik,  R. Baer,  
 A. T. Bell,  N. A. Besley,  Jeng-Da Chai,  A. E. DePrince, III,  
 R. A. DiStasio Jr.,  A. Dreuw,  B. D. Dunietz,  T. R. Furlani,  
 Chao-Ping Hsu,  Yousung Jung,  Jing Kong,  D. S. Lambrecht,  WanZhen Liang,  
 C. Ochsenfeld,  V. A. Rassolov,  L. V. Slipchenko,  J. E. Subotnik,  
 T. Van Voorhis,  J. M. Herbert,  A. I. Krylov,  P. M. W. Gill,  M. Head-Gordon

 Contributors to earlier versions of Q-Chem not listed above: 
 R. D. Adamson,  B. Austin,  J. Baker,  G. J. O. Beran,  K. Brandhorst,  
 S. T. Brown,  E. F. C. Byrd,  A. K. Chakraborty,  C.-L. Cheng,  
 Siu Hung Chien,  D. M. Chipman,  D. L. Crittenden,  H. Dachsel,  
 R. J. Doerksen,  A. D. Dutoi,  L. Fusti-Molnar,  W. A. Goddard III,  
 A. Golubeva-Zadorozhnaya,  S. R. Gwaltney,  G. Hawkins,  A. Heyden,  
 S. Hirata,  G. Kedziora,  F. J. Keil,  C. Kelley,  Jihan Kim,  R. A. King,  
 R. Z. Khaliullin,  P. P. Korambath,  W. Kurlancheek,  A. M. Lee,  M. S. Lee,  
 S. V. Levchenko,  Ching Yeh Lin,  D. Liotard,  R. C. Lochan,  I. Lotan,  
 P. E. Maslen,  N. Nair,  D. P. O'Neill,  D. Neuhauser,  E. Neuscamman,  
 C. M. Oana,  R. Olson,  B. Peters,  R. Peverati,  P. A. Pieniazek,  
 Y. M. Rhee,  J. Ritchie,  M. A. Rohrdanz,  E. Rosta,  N. J. Russ,  
 H. F. Schaefer III,  N. E. Schultz,  N. Shenvi,  A. C. Simmonett,  A. Sodt,  
 D. Stuck,  K. S. Thanthiriwatte,  V. Vanovschi,  Tao Wang,  A. Warshel,  
 C. F. Williams,  Q. Wu,  X. Xu,  W. Zhang

 Please cite Q-Chem as follows:
 Y. Shao et al., Mol. Phys. 113, 184-215 (2015)
 DOI: 10.1080/00268976.2014.952696

 Q-Chem 5.1.1 for Intel X86 EM64T Linux

 Parts of Q-Chem use Armadillo 8.300.2 (Tropical Shenanigans).
 http://arma.sourceforge.net/

 Q-Chem begins on Fri Oct 30 18:46:28 2020  

Host: n0081.mhg0
0

     Scratch files written to /local/scratch/users/yhljason/NaCl_HSE-HJS_aug-pc-4.inp20201030131816//
Input Ideriv = 2
Curr. Ideriv = -1
Max.  Ideriv = 2

Checking the input file for inconsistencies... 	...done.

--------------------------------------------------------------
User input:
--------------------------------------------------------------
$molecule
0 1
Na1     0.0000  0.0000  0.0000
Cl2     0.0000  0.0000  2.3608
$end

$rem
jobtype sp
method HSE-HJS
xc_grid 000099000590
basis aug-pc-4
max_scf_cycles 200
thresh 14
scf_convergence 8
scf_algorithm gdm
symmetry false
sym_ignore true
unrestricted True
gen_scfman true
internal_stability_iter 15
internal_stability_davidson_iter 200
mem_total 64000
mem_static 1500
n_frozen_core 0
$end



--------------------------------------------------------------
 ----------------------------------------------------------------
             Standard Nuclear Orientation (Angstroms)
    I     Atom           X                Y                Z
 ----------------------------------------------------------------
    1      Na      0.0000000000     0.0000000000     0.0000000000
    2      Cl      0.0000000000     0.0000000000     2.3608000000
 ----------------------------------------------------------------
 Nuclear Repulsion Energy =    41.9163581920 hartrees
 There are       14 alpha and       14 beta electrons
 Requested basis set is aug-pc-4
 There are 54 shells and 226 basis functions

 Total QAlloc Memory Limit  64000 MB
 Mega-Array Size      1467 MB
 MEM_STATIC part      1500 MB

                       Distance Matrix (Angstroms)
             Na(  1)
   Cl(  2)  2.360800
 
 A cutoff of  1.0D-14 yielded   1482 shell pairs
 There are     26206 function pairs (     49007 Cartesian)
 
 -------------------------------------------------------
 OpenMP Integral Computing Module                       
 Release: version 1.0, May 2013, Q-Chem Inc. Pittsburgh 
 -------------------------------------------------------
 Integral Job Info:
 Integral job number is                      11
 Integral operator is                         1
 short-range coefficients              25000000
 long-range coefficients                      0
 Omega coefficients                         110
 if combine SR and LR in K                    1
 Integral screening is                        0
 Integral computing path is                   2
 max size of driver memory is           6400000
 size of driver memory is               5498286
 size of scratch memory is             28418842
 max col of scratch BK array             194481
 max len of scratch array in speh3         5572
 max len of scratch index in speh4           72
 max int batch size is                      520
 min int batch size is                       52
 fixed nKL is                                 7
 max L of basis functions is                  5
 order of int derivative is                   0
 number of shells is                         54
 number of basis is                         308
 number of cartesian basis is               308
 number of contracted shell pairs          1482
 number of primitive shell pairs          10013
 maxK2 (contraction) of shell pair          225
 max number of K2 of shell pair               1
 max number of CS2 of shell pair            113
 max number of PS2 of shell pair            528
 mem total for path MDJ                  846532
 -------------------------------------------------------
 Smallest overlap matrix eigenvalue = 4.49E-05

 Scale SEOQF with 1.000000e-02/1.000000e-02/1.000000e-02

 Standard Electronic Orientation quadrupole field applied
 Nucleus-field energy     =    -0.0000000010 hartrees
 Guess from superposition of atomic densities
 Warning:  Energy on first SCF cycle will be non-variational
 SAD guess density has 28.000000 electrons

 -----------------------------------------------------------------------
  General SCF calculation program by
  Eric Jon Sundstrom, Paul Horn, Yuezhi Mao, Dmitri Zuev, Alec White,
  David Stuck, Shaama M.S., Shane Yost, Joonho Lee, David Small,
  Daniel Levine, Susi Lehtola, Hugh Burton, Evgeny Epifanovsky
 -----------------------------------------------------------------------
 Exchange:     0.2500 Hartree-Fock + 1.0000 PBE + -0.2500 wPBE + LR-HF
 Correlation:  1.0000 PBE
 Using Euler-Maclaurin-Lebedev (99,590) quadrature formula
Running Object-Oriented UKS (UHF)
performing a single roothaan step with Fock from read density so that orbitals are available to all algorithms
energy of the guess density (C=0) -622.226874096522
We will preform up to 15 macro iterations over saddle points until a stable solution is found
Energy prior to optimization (guess energy) = -622.294772367420
Begin Timing: Total SCF Calculation
Begin Timing: SCF Single Stationary Point Calculation
begin iterations for algorithm: GDM          
the SCF tolerance is set to 1.00e-08
    1    -622.2947723674      1.18e-01     00000  Descent step
    2    -622.3001425909      1.73e-01     00000  Normal BFGS step
    3    -622.3404682263      2.73e-02     00000  Normal BFGS step
    4    -622.3419089337      9.08e-03     00000  Normal BFGS step
    5    -622.3420379242      2.97e-03     00000  Normal BFGS step
    6    -622.3420959912      1.56e-04     00000  Normal BFGS step
    7    -622.3420963085      9.18e-05     00000  Normal BFGS step
    8    -622.3420963983      6.50e-06     00000  Normal BFGS step
    9    -622.3420963987      1.81e-06     00000  Normal BFGS step
   10    -622.3420963987      3.43e-08     00000  Normal BFGS step
   11    -622.3420963987      1.05e-08     00000  Normal BFGS step
   12    -622.3420963987      8.18e-09     00000 Convergence criterion met
Timing for Single Stationary Point: 759.00s (wall), 6001.50s (cpu)
Begin Timing: Stability
===================================================
Beginning Test for Internal Stability
===================================================
generating davidson guess vectors based on koopmans excitations
    1      6.76e-01     00000 Davidson Iteration
    2      3.12e-02     00000 Davidson Iteration
    3      9.12e-03     00000 Davidson Iteration
    4      1.86e-03     00000 Davidson Iteration
    5      6.25e-04     00000 Davidson Iteration
    6      1.97e-04     00000 Davidson Iteration
    7      5.57e-05     00000 Davidson Iteration
    8      7.60e-05     00000 Davidson Converged
converged_eigenvalues
   0.2697
   0.2840
Threshold for negative eigenvalues: -1.0e-05
solution was a local minimum (stable)
===================================================
End Test for Internal Stability
===================================================
Our SCF solution is stable!
Timing for Total SCF: 1789.00s (wall), 14159.40s (cpu)
 Total energy in the final basis set =     -622.3420963987
<S^2> =         -0.000000000
    ==================================================
              The end of Object-Oriented SCFman       
    ==================================================
 
 --------------------------------------------------------------
 
                    Orbital Energies (a.u.)
 --------------------------------------------------------------
 
 Alpha MOs
 -- Occupied --
******* -38.542  -9.390  -7.119  -7.118  -7.118  -2.271  -1.184
 -1.184  -1.182  -0.692  -0.242  -0.226  -0.226
 -- Virtual --
 -0.071  -0.006  -0.006   0.000   0.008   0.019   0.019   0.028
  0.030   0.039   0.039   0.044   0.044   0.048   0.072   0.072
  0.075   0.079   0.079   0.085   0.085   0.085   0.086   0.086
  0.101   0.111   0.111   0.117   0.135   0.135   0.139   0.139
  0.139   0.139   0.140   0.140   0.146   0.168   0.187   0.187
  0.200   0.200   0.213   0.213   0.232   0.237   0.239   0.239
  0.282   0.307   0.310   0.310   0.387   0.387   0.389   0.389
  0.424   0.425   0.425   0.433   0.433   0.451   0.455   0.455
  0.548   0.548   0.550   0.550   0.555   0.582   0.582   0.598
  0.598   0.607   0.625   0.625   0.640   0.640   0.646   0.720
  0.776   0.776   0.815   0.815   0.825   0.825   0.834   0.834
  0.857   0.867   0.867   0.904   0.904   0.984   0.984   1.008
  1.023   1.023   1.049   1.049   1.075   1.121   1.121   1.150
  1.150   1.214   1.349   1.349   1.396   1.396   1.400   1.421
  1.421   1.450   1.450   1.503   1.517   1.517   1.572   1.572
  1.612   1.612   1.723   1.723   1.736   1.807   1.807   1.965
  1.965   2.004   2.037   2.338   2.338   2.524   2.524   2.555
  3.016   3.016   3.017   3.017   3.109   3.109   3.158   3.209
  3.209   3.689   3.689   3.736   3.742   3.742   3.933   3.933
  3.938   4.033   4.033   4.173   4.173   4.184   4.254   4.254
  4.385   4.941   4.941   5.099   5.678   5.678   5.753   5.756
  5.756   5.877   5.877   5.879   5.879   5.883   5.883   5.902
  5.902   5.929   5.929   5.964   5.973   5.973   6.112   6.112
  6.513   9.337   9.337   9.337   9.337   9.380   9.380   9.452
  9.452   9.457  13.135  13.135  13.162  13.162  13.251  13.251
 13.310  17.931  17.931  18.015  18.015  18.088  38.073  66.384
 66.384  66.435  66.435  66.481
 
 Beta MOs
 -- Occupied --
******* -38.542  -9.390  -7.119  -7.118  -7.118  -2.271  -1.184
 -1.184  -1.182  -0.692  -0.242  -0.226  -0.226
 -- Virtual --
 -0.071  -0.006  -0.006   0.000   0.008   0.019   0.019   0.028
  0.030   0.039   0.039   0.044   0.044   0.048   0.072   0.072
  0.075   0.079   0.079   0.085   0.085   0.085   0.086   0.086
  0.101   0.111   0.111   0.117   0.135   0.135   0.139   0.139
  0.139   0.139   0.140   0.140   0.146   0.168   0.187   0.187
  0.200   0.200   0.213   0.213   0.232   0.237   0.239   0.239
  0.282   0.307   0.310   0.310   0.387   0.387   0.389   0.389
  0.424   0.425   0.425   0.433   0.433   0.451   0.455   0.455
  0.548   0.548   0.550   0.550   0.555   0.582   0.582   0.598
  0.598   0.607   0.625   0.625   0.640   0.640   0.646   0.720
  0.776   0.776   0.815   0.815   0.825   0.825   0.834   0.834
  0.857   0.867   0.867   0.904   0.904   0.984   0.984   1.008
  1.023   1.023   1.049   1.049   1.075   1.121   1.121   1.150
  1.150   1.214   1.349   1.349   1.396   1.396   1.400   1.421
  1.421   1.450   1.450   1.503   1.517   1.517   1.572   1.572
  1.612   1.612   1.723   1.723   1.736   1.807   1.807   1.965
  1.965   2.004   2.037   2.338   2.338   2.524   2.524   2.555
  3.016   3.016   3.017   3.017   3.109   3.109   3.158   3.209
  3.209   3.689   3.689   3.736   3.742   3.742   3.933   3.933
  3.938   4.033   4.033   4.173   4.173   4.184   4.254   4.254
  4.385   4.941   4.941   5.099   5.678   5.678   5.753   5.756
  5.756   5.877   5.877   5.879   5.879   5.883   5.883   5.902
  5.902   5.929   5.929   5.964   5.973   5.973   6.112   6.112
  6.513   9.337   9.337   9.337   9.337   9.380   9.380   9.452
  9.452   9.457  13.135  13.135  13.162  13.162  13.251  13.251
 13.310  17.931  17.931  18.015  18.015  18.088  38.073  66.384
 66.384  66.435  66.435  66.481
 --------------------------------------------------------------
 
          Ground-State Mulliken Net Atomic Charges

     Atom                 Charge (a.u.)    Spin (a.u.)
  --------------------------------------------------------
      1 Na                    0.745656       0.000000
      2 Cl                   -0.745656      -0.000000
  --------------------------------------------------------
  Sum of atomic charges =    -0.000000
  Sum of spin   charges =    -0.000000

 -----------------------------------------------------------------
                    Cartesian Multipole Moments
 -----------------------------------------------------------------
    Charge (ESU x 10^10)
                -0.0000
    Dipole Moment (Debye)
         X       0.0000      Y      -0.0000      Z      -8.7757
       Tot       8.7757
    Quadrupole Moments (Debye-Ang)
        XX     -19.4537     XY       0.0000     YY     -19.4537
        XZ      -0.0000     YZ      -0.0000     ZZ     -36.2506
    Octopole Moments (Debye-Ang^2)
       XXX       0.0000    XXY      -0.0000    XYY       0.0000
       YYY      -0.0000    XXZ     -36.9042    XYZ       0.0000
       YYZ     -36.9042    XZZ      -0.0000    YZZ      -0.0000
       ZZZ    -142.6762
    Hexadecapole Moments (Debye-Ang^3)
      XXXX     -26.3468   XXXY       0.0000   XXYY      -8.7823
      XYYY       0.0000   YYYY     -26.3468   XXXZ      -0.0000
      XXYZ       0.0000   XYYZ      -0.0000   YYYZ       0.0000
      XXZZ     -92.7576   XYZZ       0.0000   YYZZ     -92.7576
      XZZZ      -0.0000   YZZZ      -0.0000   ZZZZ    -591.3045
 -----------------------------------------------------------------
Archival summary:
1\1\n0081.mhg0\SP\ProcedureUnspecified\BasisUnspecified\l1a1\yhljason\FriOct3019:17:432020FriOct3019:17:432020\0\\#,ProcedureUnspecified,BasisUnspecified,\\0,1\Na\Cl,1,2.3608\\\@

 Total job time:  1874.71s(wall), 14819.14s(cpu) 
 Fri Oct 30 19:17:43 2020

        *************************************************************
        *                                                           *
        *  Thank you very much for using Q-Chem.  Have a nice day.  *
        *                                                           *
        *************************************************************


