Q-Chem Developer Version!
                  Welcome to Q-Chem
     A Quantum Leap Into The Future Of Chemistry


 Q-Chem 5.1, Q-Chem, Inc., Pleasanton, CA (2018)

 Yihan Shao,  Zhengting Gan,  E. Epifanovsky,  A. T. B. Gilbert,  M. Wormit,  
 J. Kussmann,  A. W. Lange,  A. Behn,  Jia Deng,  Xintian Feng,  D. Ghosh,  
 M. Goldey,  P. R. Horn,  L. D. Jacobson,  I. Kaliman,  T. Kus,  A. Landau,  
 Jie Liu,  E. I. Proynov,  R. M. Richard,  R. P. Steele,  E. J. Sundstrom,  
 H. L. Woodcock III,  P. M. Zimmerman,  D. Zuev,  B. Albrecht,  E. Alguire,  
 S. A. Baeppler,  D. Barton,  Z. Benda,  Y. A. Bernard,  E. J. Berquist,  
 K. B. Bravaya,  H. Burton,  D. Casanova,  Chun-Min Chang,  Yunqing Chen,  
 A. Chien,  K. D. Closser,  M. P. Coons,  S. Coriani,  S. Dasgupta,  
 A. L. Dempwolff,  M. Diedenhofen,  Hainam Do,  R. G. Edgar,  Po-Tung Fang,  
 S. Faraji,  S. Fatehi,  Qingguo Feng,  K. D. Fenk,  J. Fosso-Tande,  
 Qinghui Ge,  A. Ghysels,  G. Gidofalvi,  J. Gomes,  J. Gonthier,  A. Gunina,  
 D. Hait,  M. W. D. Hanson-Heine,  P. H. P. Harbach,  A. W. Hauser,  
 J. E. Herr,  E. G. Hohenstein,  Z. C. Holden,  Kerwin Hui,  B. C. Huynh,  
 T.-C. Jagau,  Hyunjun Ji,  B. Kaduk,  K. Khistyaev,  Jaehoon Kim,  
 P. Klunzinger,  K. Koh,  D. Kosenkov,  L. Koulias,  T. Kowalczyk,  
 C. M. Krauter,  A. Kunitsa,  Ka Un Lao,  A. Laurent,  K. V. Lawler,  
 Joonho Lee,  D. Lefrancois,  S. Lehtola,  D. S. Levine,  Yi-Pei Li,  
 You-Sheng Lin,  Fenglai Liu,  E. Livshits,  A. Luenser,  P. Manohar,  
 E. Mansoor,  S. F. Manzer,  Shan-Ping Mao,  Yuezhi Mao,  N. Mardirossian,  
 A. V. Marenich,  T. Markovich,  L. A. Martinez-Martinez,  S. A. Maurer,  
 N. J. Mayhall,  S. C. McKenzie,  J.-M. Mewes,  A. F. Morrison,  
 J. W. Mullinax,  K. Nanda,  T. S. Nguyen-Beck,  R. Olivares-Amaya,  
 J. A. Parkhill,  T. M. Perrine,  F. Plasser,  P. Pokhilko,  S. Prager,  
 A. Prociuk,  E. Ramos,  D. R. Rehn,  F. Rob,  M. Schneider,  N. Sergueev,  
 S. M. Sharada,  S. Sharma,  D. W. Small,  T. Stauch,  T. Stein,  
 Yu-Chuan Su,  A. J. W. Thom,  A. Tkatchenko,  T. Tsuchimochi,  N. M. Tubman,  
 L. Vogt,  M. L. Vidal,  O. Vydrov,  M. A. Watson,  J. Wenzel,  
 M. de Wergifosse,  T. A. Wesolowski,  A. White,  J. Witte,  A. Yamada,  
 Jun Yang,  K. Yao,  S. Yeganeh,  S. R. Yost,  Zhi-Qiang You,  A. Zech,  
 Igor Ying Zhang,  Xing Zhang,  Yan Zhao,  Ying Zhu,  B. R. Brooks,  
 G. K. L. Chan,  C. J. Cramer,  M. S. Gordon,  W. J. Hehre,  A. Klamt,  
 M. W. Schmidt,  C. D. Sherrill,  D. G. Truhlar,  A. Aspuru-Guzik,  R. Baer,  
 A. T. Bell,  N. A. Besley,  Jeng-Da Chai,  A. E. DePrince, III,  
 R. A. DiStasio Jr.,  A. Dreuw,  B. D. Dunietz,  T. R. Furlani,  
 Chao-Ping Hsu,  Yousung Jung,  Jing Kong,  D. S. Lambrecht,  WanZhen Liang,  
 C. Ochsenfeld,  V. A. Rassolov,  L. V. Slipchenko,  J. E. Subotnik,  
 T. Van Voorhis,  J. M. Herbert,  A. I. Krylov,  P. M. W. Gill,  M. Head-Gordon

 Contributors to earlier versions of Q-Chem not listed above: 
 R. D. Adamson,  B. Austin,  J. Baker,  G. J. O. Beran,  K. Brandhorst,  
 S. T. Brown,  E. F. C. Byrd,  A. K. Chakraborty,  C.-L. Cheng,  
 Siu Hung Chien,  D. M. Chipman,  D. L. Crittenden,  H. Dachsel,  
 R. J. Doerksen,  A. D. Dutoi,  L. Fusti-Molnar,  W. A. Goddard III,  
 A. Golubeva-Zadorozhnaya,  S. R. Gwaltney,  G. Hawkins,  A. Heyden,  
 S. Hirata,  G. Kedziora,  F. J. Keil,  C. Kelley,  Jihan Kim,  R. A. King,  
 R. Z. Khaliullin,  P. P. Korambath,  W. Kurlancheek,  A. M. Lee,  M. S. Lee,  
 S. V. Levchenko,  Ching Yeh Lin,  D. Liotard,  R. C. Lochan,  I. Lotan,  
 P. E. Maslen,  N. Nair,  D. P. O'Neill,  D. Neuhauser,  E. Neuscamman,  
 C. M. Oana,  R. Olson,  B. Peters,  R. Peverati,  P. A. Pieniazek,  
 Y. M. Rhee,  J. Ritchie,  M. A. Rohrdanz,  E. Rosta,  N. J. Russ,  
 H. F. Schaefer III,  N. E. Schultz,  N. Shenvi,  A. C. Simmonett,  A. Sodt,  
 D. Stuck,  K. S. Thanthiriwatte,  V. Vanovschi,  Tao Wang,  A. Warshel,  
 C. F. Williams,  Q. Wu,  X. Xu,  W. Zhang

 Please cite Q-Chem as follows:
 Y. Shao et al., Mol. Phys. 113, 184-215 (2015)
 DOI: 10.1080/00268976.2014.952696

 Q-Chem 5.1.1 for Intel X86 EM64T Linux

 Parts of Q-Chem use Armadillo 8.300.2 (Tropical Shenanigans).
 http://arma.sourceforge.net/

 Q-Chem begins on Fri Oct 30 19:11:10 2020  

Host: n0065.mhg0
0

     Scratch files written to /local/scratch/users/yhljason/PH3O_HSE-HJS_aug-pc-4.inp20201030131817//
Input Ideriv = 2
Curr. Ideriv = -1
Max.  Ideriv = 2

Checking the input file for inconsistencies... 	...done.

--------------------------------------------------------------
User input:
--------------------------------------------------------------
$molecule
0 1
P        0.0000000000      0.0000000000     -0.3836153961
H       -1.2521120981      0.0000000000     -1.0264054293
H        0.6260878053     -1.0843997178     -1.0264202208
H        0.6260878053      1.0843997178     -1.0264202208
O        0.0000000000      0.0000000008      1.1041846038
$end

$rem
jobtype sp
method HSE-HJS
xc_grid 000099000590
basis aug-pc-4
max_scf_cycles 200
thresh 14
scf_convergence 8
scf_algorithm gdm
symmetry false
sym_ignore true
unrestricted True
gen_scfman true
internal_stability_iter 15
internal_stability_davidson_iter 200
mem_total 64000
mem_static 1500
n_frozen_core 0
$end



--------------------------------------------------------------
 ----------------------------------------------------------------
             Standard Nuclear Orientation (Angstroms)
    I     Atom           X                Y                Z
 ----------------------------------------------------------------
    1      P       0.0000000000     0.0000000000    -0.3836153961
    2      H      -1.2521120981     0.0000000000    -1.0264054293
    3      H       0.6260878053    -1.0843997178    -1.0264202208
    4      H       0.6260878053     1.0843997178    -1.0264202208
    5      O       0.0000000000     0.0000000008     1.1041846038
 ----------------------------------------------------------------
 Nuclear Repulsion Energy =    65.4710297433 hartrees
 There are       13 alpha and       13 beta electrons
 Requested basis set is aug-pc-4
 There are 136 shells and 550 basis functions

 Total QAlloc Memory Limit  64000 MB
 Mega-Array Size      1467 MB
 MEM_STATIC part      1500 MB

                       Distance Matrix (Angstroms)
             P (  1)   H (  2)   H (  3)   H (  4)
   H (  2)  1.407467
   H (  3)  1.407518  2.168769
   H (  4)  1.407518  2.168769  2.168799
   O (  5)  1.487800  2.471275  2.471313  2.471313
 
 A cutoff of  1.0D-14 yielded   9053 shell pairs
 There are    150269 function pairs (    272924 Cartesian)
 
 -------------------------------------------------------
 OpenMP Integral Computing Module                       
 Release: version 1.0, May 2013, Q-Chem Inc. Pittsburgh 
 -------------------------------------------------------
 Integral Job Info:
 Integral job number is                      11
 Integral operator is                         1
 short-range coefficients              25000000
 long-range coefficients                      0
 Omega coefficients                         110
 if combine SR and LR in K                    1
 Integral screening is                        0
 Integral computing path is                   2
 max size of driver memory is           6400000
 size of driver memory is               5498286
 size of scratch memory is             28418842
 max col of scratch BK array             194481
 max len of scratch array in speh3         5572
 max len of scratch index in speh4           72
 max int batch size is                      520
 min int batch size is                       52
 fixed nKL is                                 7
 max L of basis functions is                  5
 order of int derivative is                   0
 number of shells is                        136
 number of basis is                         739
 number of cartesian basis is               739
 number of contracted shell pairs          9053
 number of primitive shell pairs          22119
 maxK2 (contraction) of shell pair          225
 max number of K2 of shell pair               1
 max number of CS2 of shell pair           1066
 max number of PS2 of shell pair           1066
 mem total for path MDJ                 1295920
 -------------------------------------------------------
 Smallest overlap matrix eigenvalue = 4.85E-07
 Linear dependence detected in AO basis
 Number of orthogonalized atomic orbitals = 547
 Maximum deviation from orthogonality = 3.353E-10

 Scale SEOQF with 1.000000e-01/1.000000e-01/1.000000e-01

 Standard Electronic Orientation quadrupole field applied
 Nucleus-field energy     =    -0.0000000014 hartrees
 Guess from superposition of atomic densities
 Warning:  Energy on first SCF cycle will be non-variational
 SAD guess density has 26.000000 electrons

 -----------------------------------------------------------------------
  General SCF calculation program by
  Eric Jon Sundstrom, Paul Horn, Yuezhi Mao, Dmitri Zuev, Alec White,
  David Stuck, Shaama M.S., Shane Yost, Joonho Lee, David Small,
  Daniel Levine, Susi Lehtola, Hugh Burton, Evgeny Epifanovsky
 -----------------------------------------------------------------------
 Exchange:     0.2500 Hartree-Fock + 1.0000 PBE + -0.2500 wPBE + LR-HF
 Correlation:  1.0000 PBE
 Using Euler-Maclaurin-Lebedev (99,590) quadrature formula
Running Object-Oriented UKS (UHF)
performing a single roothaan step with Fock from read density so that orbitals are available to all algorithms
energy of the guess density (C=0) -418.445004049580
We will preform up to 15 macro iterations over saddle points until a stable solution is found
Energy prior to optimization (guess energy) = -418.110941442750
Begin Timing: Total SCF Calculation
Begin Timing: SCF Single Stationary Point Calculation
begin iterations for algorithm: GDM          
the SCF tolerance is set to 1.00e-08
    1    -418.1109414428      1.99e-01     00000  Descent step
    2    -418.1519614930      1.87e-01     00000  Descent step
    3    -418.1918376544      6.05e-02     00000  Normal BFGS step
    4    -418.2232043903      2.09e-02     00000  Normal BFGS step
    5    -418.2272229944      3.20e-03     00000  Normal BFGS step
    6    -418.2273012511      9.64e-04     00000  Normal BFGS step
    7    -418.2273067424      2.30e-04     00000  Normal BFGS step
    8    -418.2273073438      8.09e-05     00000  Normal BFGS step
    9    -418.2273074188      2.37e-05     00000  Normal BFGS step
   10    -418.2273074223      2.96e-06     00000  Normal BFGS step
   11    -418.2273074225      6.76e-07     00000  Normal BFGS step
   12    -418.2273074225      9.73e-08     00000  Normal BFGS step
   13    -418.2273074225      6.95e-09     00000 Convergence criterion met
Timing for Single Stationary Point: 12164.00s (wall), 96767.85s (cpu)
Begin Timing: Stability
===================================================
Beginning Test for Internal Stability
===================================================
generating davidson guess vectors based on koopmans excitations
    1      6.44e-01     00000 Davidson Iteration
    2      9.31e-02     00000 Davidson Iteration
    3      3.71e-02     00000 Davidson Iteration
    4      3.23e-02     00000 Davidson Iteration
    5      6.41e-03     00000 Davidson Iteration
    6      3.91e-03     00000 Davidson Iteration
    7      2.19e-03     00000 Davidson Iteration
    8      7.85e-04     00000 Davidson Iteration
    9      3.73e-04     00000 Davidson Iteration
   10      1.10e-04     00000 Davidson Iteration
   11      4.50e-05     00000 Davidson Iteration
   12      1.01e-04     00000 Davidson Iteration
   13      3.67e-05     00000 Davidson Converged
converged_eigenvalues
   0.3968
   0.4682
Threshold for negative eigenvalues: -1.0e-05
solution was a local minimum (stable)
===================================================
End Test for Internal Stability
===================================================
Our SCF solution is stable!
Timing for Total SCF: 43124.00s (wall), 343067.85s (cpu)
 Total energy in the final basis set =     -418.2273074225
<S^2> =         -0.000000000
    ==================================================
              The end of Object-Oriented SCFman       
    ==================================================
 
 --------------------------------------------------------------
 
                    Orbital Energies (a.u.)
 --------------------------------------------------------------
 
 Alpha MOs
 -- Occupied --
-77.241 -19.155  -6.654  -4.789  -4.789  -4.787  -0.985  -0.656
 -0.447  -0.447  -0.393  -0.294  -0.294
 -- Virtual --
 -0.032  -0.023   0.011   0.011   0.015   0.015   0.032   0.034
  0.044   0.044   0.056   0.062   0.062   0.070   0.070   0.094
  0.101   0.101   0.109   0.116   0.120   0.120   0.125   0.129
  0.135   0.135   0.150   0.153   0.153   0.170   0.170   0.191
  0.191   0.197   0.212   0.213   0.216   0.216   0.222   0.222
  0.227   0.235   0.235   0.251   0.256   0.264   0.264   0.276
  0.276   0.277   0.300   0.300   0.300   0.303   0.303   0.304
  0.315   0.316   0.316   0.330   0.337   0.337   0.354   0.354
  0.360   0.369   0.369   0.396   0.401   0.401   0.425   0.425
  0.425   0.433   0.440   0.440   0.444   0.455   0.457   0.467
  0.467   0.470   0.470   0.474   0.474   0.480   0.491   0.495
  0.499   0.499   0.509   0.509   0.526   0.530   0.530   0.534
  0.545   0.545   0.570   0.576   0.576   0.583   0.583   0.597
  0.615   0.620   0.620   0.627   0.629   0.629   0.645   0.647
  0.647   0.655   0.672   0.672   0.691   0.691   0.702   0.702
  0.705   0.716   0.722   0.744   0.744   0.751   0.752   0.752
  0.753   0.767   0.767   0.783   0.802   0.805   0.805   0.812
  0.821   0.821   0.827   0.829   0.829   0.835   0.839   0.845
  0.845   0.857   0.857   0.867   0.867   0.870   0.874   0.881
  0.900   0.900   0.920   0.920   0.928   0.928   0.928   0.951
  0.951   0.955   0.974   0.974   0.977   0.981   0.993   0.993
  1.027   1.027   1.043   1.043   1.058   1.058   1.077   1.121
  1.140   1.162   1.176   1.176   1.182   1.182   1.199   1.214
  1.214   1.235   1.235   1.263   1.268   1.268   1.291   1.291
  1.317   1.337   1.337   1.369   1.435   1.443   1.443   1.490
  1.525   1.525   1.528   1.528   1.538   1.565   1.565   1.572
  1.634   1.634   1.645   1.688   1.688   1.690   1.690   1.718
  1.729   1.729   1.740   1.771   1.771   1.805   1.805   1.821
  1.885   1.941   1.941   2.000   2.061   2.061   2.076   2.076
  2.103   2.159   2.173   2.207   2.207   2.309   2.350   2.350
  2.429   2.429   2.515   2.604   2.604   2.625   2.625   2.716
  2.737   2.737   2.744   2.793   2.893   2.893   2.965   2.965
  3.026   3.053   3.053   3.063   3.115   3.189   3.189   3.255
  3.261   3.344   3.344   3.349   3.430   3.430   3.507   3.508
  3.509   3.540   3.540   3.602   3.602   3.618   3.622   3.676
  3.687   3.687   3.689   3.746   3.784   3.784   3.853   3.853
  3.866   3.885   3.885   3.935   4.027   4.027   4.074   4.171
  4.171   4.186   4.186   4.256   4.344   4.344   4.372   4.410
  4.410   4.417   4.556   4.601   4.601   4.695   4.695   4.747
  4.911   4.911   5.015   5.116   5.179   5.179   5.213   5.248
  5.266   5.266   5.352   5.352   5.455   5.455   5.474   5.561
  5.648   5.648   5.693   5.800   5.800   5.865   5.865   5.878
  6.028   6.159   6.159   6.159   6.203   6.203   6.299   6.299
  6.499   6.515   6.716   6.793   6.793   7.071   7.071   7.149
  7.249   7.368   7.368   7.594   7.594   7.715   7.715   7.756
  7.994   8.057   8.057   8.137   8.142   8.142   8.571   8.571
  8.595   8.663   8.711   8.711   8.900   8.900   8.988   9.042
  9.042   9.049   9.106   9.106   9.130   9.258   9.304   9.322
  9.322   9.437   9.438   9.651   9.651   9.653   9.777   9.777
  9.886   9.886   9.925  10.081  10.081  10.457  11.139  11.242
 11.242  11.297  11.320  11.320  11.420  11.499  11.639  11.639
 11.831  11.831  12.102  12.221  12.221  12.234  12.234  12.343
 12.383  12.397  12.417  12.417  12.474  12.526  12.526  12.564
 12.630  12.630  12.679  12.679  12.723  12.723  12.757  12.866
 12.917  12.920  12.920  12.959  13.085  13.109  13.110  13.110
 13.282  13.325  13.325  13.388  13.388  13.582  13.582  13.930
 14.077  14.077  14.841  16.402  16.402  16.765  16.784  16.784
 16.788  16.788  16.788  16.790  16.829  16.829  16.897  16.897
 16.914  17.025  17.113  17.113  17.208  17.222  17.222  17.228
 17.228  17.235  17.328  17.328  17.413  17.445  17.739  17.815
 17.830  17.831  18.031  18.031  18.241  18.241  18.572  18.750
 18.750  18.891  19.306  19.306  23.272  23.272  23.503  23.526
 23.526  23.542  23.589  23.589  23.632  23.632  24.006  24.301
 24.301  24.350  30.237  30.667  32.372  32.372  33.701  40.215
 40.215  40.228  59.580  59.580  60.216  60.314  60.314  67.008
 67.008  67.238  67.238  67.835  91.163  91.196  91.196  91.201
 91.220  91.220  91.716  91.718  91.718 143.737
 
 Beta MOs
 -- Occupied --
-77.241 -19.155  -6.654  -4.789  -4.789  -4.787  -0.985  -0.656
 -0.447  -0.447  -0.393  -0.294  -0.294
 -- Virtual --
 -0.032  -0.023   0.011   0.011   0.015   0.015   0.032   0.034
  0.044   0.044   0.056   0.062   0.062   0.070   0.070   0.094
  0.101   0.101   0.109   0.116   0.120   0.120   0.125   0.129
  0.135   0.135   0.150   0.153   0.153   0.170   0.170   0.191
  0.191   0.197   0.212   0.213   0.216   0.216   0.222   0.222
  0.227   0.235   0.235   0.251   0.256   0.264   0.264   0.276
  0.276   0.277   0.300   0.300   0.300   0.303   0.303   0.304
  0.315   0.316   0.316   0.330   0.337   0.337   0.354   0.354
  0.360   0.369   0.369   0.396   0.401   0.401   0.425   0.425
  0.425   0.433   0.440   0.440   0.444   0.455   0.457   0.467
  0.467   0.470   0.470   0.474   0.474   0.480   0.491   0.495
  0.499   0.499   0.509   0.509   0.526   0.530   0.530   0.534
  0.545   0.545   0.570   0.576   0.576   0.583   0.583   0.597
  0.615   0.620   0.620   0.627   0.629   0.629   0.645   0.647
  0.647   0.655   0.672   0.672   0.691   0.691   0.702   0.702
  0.705   0.716   0.722   0.744   0.744   0.751   0.752   0.752
  0.753   0.767   0.767   0.783   0.802   0.805   0.805   0.812
  0.821   0.821   0.827   0.829   0.829   0.835   0.839   0.845
  0.845   0.857   0.857   0.867   0.867   0.870   0.874   0.881
  0.900   0.900   0.920   0.920   0.928   0.928   0.928   0.951
  0.951   0.955   0.974   0.974   0.977   0.981   0.993   0.993
  1.027   1.027   1.043   1.043   1.058   1.058   1.077   1.121
  1.140   1.162   1.176   1.176   1.182   1.182   1.199   1.214
  1.214   1.235   1.235   1.263   1.268   1.268   1.291   1.291
  1.317   1.337   1.337   1.369   1.435   1.443   1.443   1.490
  1.525   1.525   1.528   1.528   1.538   1.565   1.565   1.572
  1.634   1.634   1.645   1.688   1.688   1.690   1.690   1.718
  1.729   1.729   1.740   1.771   1.771   1.805   1.805   1.821
  1.885   1.941   1.941   2.000   2.061   2.061   2.076   2.076
  2.103   2.159   2.173   2.207   2.207   2.309   2.350   2.350
  2.429   2.429   2.515   2.604   2.604   2.625   2.625   2.716
  2.737   2.737   2.744   2.793   2.893   2.893   2.965   2.965
  3.026   3.053   3.053   3.063   3.115   3.189   3.189   3.255
  3.261   3.344   3.344   3.349   3.430   3.430   3.507   3.508
  3.509   3.540   3.540   3.602   3.602   3.618   3.622   3.676
  3.687   3.687   3.689   3.746   3.784   3.784   3.853   3.853
  3.866   3.885   3.885   3.935   4.027   4.027   4.074   4.171
  4.171   4.186   4.186   4.256   4.344   4.344   4.372   4.410
  4.410   4.417   4.556   4.601   4.601   4.695   4.695   4.747
  4.911   4.911   5.015   5.116   5.179   5.179   5.213   5.248
  5.266   5.266   5.352   5.352   5.455   5.455   5.474   5.561
  5.648   5.648   5.693   5.800   5.800   5.865   5.865   5.878
  6.028   6.159   6.159   6.159   6.203   6.203   6.299   6.299
  6.499   6.515   6.716   6.793   6.793   7.071   7.071   7.149
  7.249   7.368   7.368   7.594   7.594   7.715   7.715   7.756
  7.994   8.057   8.057   8.137   8.142   8.142   8.571   8.571
  8.595   8.663   8.711   8.711   8.900   8.900   8.988   9.042
  9.042   9.049   9.106   9.106   9.130   9.258   9.304   9.322
  9.322   9.437   9.438   9.651   9.651   9.653   9.777   9.777
  9.886   9.886   9.925  10.081  10.081  10.457  11.139  11.242
 11.242  11.297  11.320  11.320  11.420  11.499  11.639  11.639
 11.831  11.831  12.102  12.221  12.221  12.234  12.234  12.343
 12.383  12.397  12.417  12.417  12.474  12.526  12.526  12.564
 12.630  12.630  12.679  12.679  12.723  12.723  12.757  12.866
 12.917  12.920  12.920  12.959  13.085  13.109  13.110  13.110
 13.282  13.325  13.325  13.388  13.388  13.582  13.582  13.930
 14.077  14.077  14.841  16.402  16.402  16.765  16.784  16.784
 16.788  16.788  16.788  16.790  16.829  16.829  16.897  16.897
 16.914  17.025  17.113  17.113  17.208  17.222  17.222  17.228
 17.228  17.235  17.328  17.328  17.413  17.445  17.739  17.815
 17.830  17.831  18.031  18.031  18.241  18.241  18.572  18.750
 18.750  18.891  19.306  19.306  23.272  23.272  23.503  23.526
 23.526  23.542  23.589  23.589  23.632  23.632  24.006  24.301
 24.301  24.350  30.237  30.667  32.372  32.372  33.701  40.215
 40.215  40.228  59.580  59.580  60.216  60.314  60.314  67.008
 67.008  67.238  67.238  67.835  91.163  91.196  91.196  91.201
 91.220  91.220  91.716  91.718  91.718 143.737
 --------------------------------------------------------------
 
          Ground-State Mulliken Net Atomic Charges

     Atom                 Charge (a.u.)    Spin (a.u.)
  --------------------------------------------------------
      1 P                     0.187212       0.000000
      2 H                     0.046915      -0.000000
      3 H                     0.046882      -0.000000
      4 H                     0.046882      -0.000000
      5 O                    -0.327890       0.000000
  --------------------------------------------------------
  Sum of atomic charges =    -0.000000
  Sum of spin   charges =    -0.000000

 -----------------------------------------------------------------
                    Cartesian Multipole Moments
 -----------------------------------------------------------------
    Charge (ESU x 10^10)
                 0.0000
    Dipole Moment (Debye)
         X      -0.0001      Y      -0.0000      Z      -3.7089
       Tot       3.7089
    Quadrupole Moments (Debye-Ang)
        XX     -18.9088     XY      -0.0000     YY     -18.9089
        XZ       0.0001     YZ      -0.0000     ZZ     -22.6272
    Octopole Moments (Debye-Ang^2)
       XXX      -0.2492    XXY      -0.0000    XYY       0.2487
       YYY      -0.0000    XXZ      -0.0325    XYZ       0.0000
       YYZ      -0.0325    XZZ      -0.0002    YZZ      -0.0000
       ZZZ      -2.3229
    Hexadecapole Moments (Debye-Ang^3)
      XXXX     -32.8934   XXXY      -0.0000   XXYY     -10.9646
      XYYY       0.0000   YYYY     -32.8944   XXXZ       0.4659
      XXYZ      -0.0000   XYYZ      -0.4653   YYYZ      -0.0000
      XXZZ     -21.4558   XYZZ      -0.0000   YYZZ     -21.4560
      XZZZ       0.0005   YZZZ      -0.0000   ZZZZ     -95.2153
 -----------------------------------------------------------------
Archival summary:
1\1\n0065.mhg0\SP\ProcedureUnspecified\BasisUnspecified\113\yhljason\SatOct3107:27:552020SatOct3107:27:552020\0\\#,ProcedureUnspecified,BasisUnspecified,\\0,1\P\H,1,1.40747\H,1,1.40752,2,100.786\H,1,1.40752,2,100.786,3,-103.31,0\O,1,1.4878,2,117.174,3,128.345,0\\\@

 Total job time:  44204.77s(wall), 351579.24s(cpu) 
 Sat Oct 31 07:27:55 2020

        *************************************************************
        *                                                           *
        *  Thank you very much for using Q-Chem.  Have a nice day.  *
        *                                                           *
        *************************************************************


