Q-Chem Developer Version!
                  Welcome to Q-Chem
     A Quantum Leap Into The Future Of Chemistry


 Q-Chem 5.1, Q-Chem, Inc., Pleasanton, CA (2018)

 Yihan Shao,  Zhengting Gan,  E. Epifanovsky,  A. T. B. Gilbert,  M. Wormit,  
 J. Kussmann,  A. W. Lange,  A. Behn,  Jia Deng,  Xintian Feng,  D. Ghosh,  
 M. Goldey,  P. R. Horn,  L. D. Jacobson,  I. Kaliman,  T. Kus,  A. Landau,  
 Jie Liu,  E. I. Proynov,  R. M. Richard,  R. P. Steele,  E. J. Sundstrom,  
 H. L. Woodcock III,  P. M. Zimmerman,  D. Zuev,  B. Albrecht,  E. Alguire,  
 S. A. Baeppler,  D. Barton,  Z. Benda,  Y. A. Bernard,  E. J. Berquist,  
 K. B. Bravaya,  H. Burton,  D. Casanova,  Chun-Min Chang,  Yunqing Chen,  
 A. Chien,  K. D. Closser,  M. P. Coons,  S. Coriani,  S. Dasgupta,  
 A. L. Dempwolff,  M. Diedenhofen,  Hainam Do,  R. G. Edgar,  Po-Tung Fang,  
 S. Faraji,  S. Fatehi,  Qingguo Feng,  K. D. Fenk,  J. Fosso-Tande,  
 Qinghui Ge,  A. Ghysels,  G. Gidofalvi,  J. Gomes,  J. Gonthier,  A. Gunina,  
 D. Hait,  M. W. D. Hanson-Heine,  P. H. P. Harbach,  A. W. Hauser,  
 J. E. Herr,  E. G. Hohenstein,  Z. C. Holden,  Kerwin Hui,  B. C. Huynh,  
 T.-C. Jagau,  Hyunjun Ji,  B. Kaduk,  K. Khistyaev,  Jaehoon Kim,  
 P. Klunzinger,  K. Koh,  D. Kosenkov,  L. Koulias,  T. Kowalczyk,  
 C. M. Krauter,  A. Kunitsa,  Ka Un Lao,  A. Laurent,  K. V. Lawler,  
 Joonho Lee,  D. Lefrancois,  S. Lehtola,  D. S. Levine,  Yi-Pei Li,  
 You-Sheng Lin,  Fenglai Liu,  E. Livshits,  A. Luenser,  P. Manohar,  
 E. Mansoor,  S. F. Manzer,  Shan-Ping Mao,  Yuezhi Mao,  N. Mardirossian,  
 A. V. Marenich,  T. Markovich,  L. A. Martinez-Martinez,  S. A. Maurer,  
 N. J. Mayhall,  S. C. McKenzie,  J.-M. Mewes,  A. F. Morrison,  
 J. W. Mullinax,  K. Nanda,  T. S. Nguyen-Beck,  R. Olivares-Amaya,  
 J. A. Parkhill,  T. M. Perrine,  F. Plasser,  P. Pokhilko,  S. Prager,  
 A. Prociuk,  E. Ramos,  D. R. Rehn,  F. Rob,  M. Schneider,  N. Sergueev,  
 S. M. Sharada,  S. Sharma,  D. W. Small,  T. Stauch,  T. Stein,  
 Yu-Chuan Su,  A. J. W. Thom,  A. Tkatchenko,  T. Tsuchimochi,  N. M. Tubman,  
 L. Vogt,  M. L. Vidal,  O. Vydrov,  M. A. Watson,  J. Wenzel,  
 M. de Wergifosse,  T. A. Wesolowski,  A. White,  J. Witte,  A. Yamada,  
 Jun Yang,  K. Yao,  S. Yeganeh,  S. R. Yost,  Zhi-Qiang You,  A. Zech,  
 Igor Ying Zhang,  Xing Zhang,  Yan Zhao,  Ying Zhu,  B. R. Brooks,  
 G. K. L. Chan,  C. J. Cramer,  M. S. Gordon,  W. J. Hehre,  A. Klamt,  
 M. W. Schmidt,  C. D. Sherrill,  D. G. Truhlar,  A. Aspuru-Guzik,  R. Baer,  
 A. T. Bell,  N. A. Besley,  Jeng-Da Chai,  A. E. DePrince, III,  
 R. A. DiStasio Jr.,  A. Dreuw,  B. D. Dunietz,  T. R. Furlani,  
 Chao-Ping Hsu,  Yousung Jung,  Jing Kong,  D. S. Lambrecht,  WanZhen Liang,  
 C. Ochsenfeld,  V. A. Rassolov,  L. V. Slipchenko,  J. E. Subotnik,  
 T. Van Voorhis,  J. M. Herbert,  A. I. Krylov,  P. M. W. Gill,  M. Head-Gordon

 Contributors to earlier versions of Q-Chem not listed above: 
 R. D. Adamson,  B. Austin,  J. Baker,  G. J. O. Beran,  K. Brandhorst,  
 S. T. Brown,  E. F. C. Byrd,  A. K. Chakraborty,  C.-L. Cheng,  
 Siu Hung Chien,  D. M. Chipman,  D. L. Crittenden,  H. Dachsel,  
 R. J. Doerksen,  A. D. Dutoi,  L. Fusti-Molnar,  W. A. Goddard III,  
 A. Golubeva-Zadorozhnaya,  S. R. Gwaltney,  G. Hawkins,  A. Heyden,  
 S. Hirata,  G. Kedziora,  F. J. Keil,  C. Kelley,  Jihan Kim,  R. A. King,  
 R. Z. Khaliullin,  P. P. Korambath,  W. Kurlancheek,  A. M. Lee,  M. S. Lee,  
 S. V. Levchenko,  Ching Yeh Lin,  D. Liotard,  R. C. Lochan,  I. Lotan,  
 P. E. Maslen,  N. Nair,  D. P. O'Neill,  D. Neuhauser,  E. Neuscamman,  
 C. M. Oana,  R. Olson,  B. Peters,  R. Peverati,  P. A. Pieniazek,  
 Y. M. Rhee,  J. Ritchie,  M. A. Rohrdanz,  E. Rosta,  N. J. Russ,  
 H. F. Schaefer III,  N. E. Schultz,  N. Shenvi,  A. C. Simmonett,  A. Sodt,  
 D. Stuck,  K. S. Thanthiriwatte,  V. Vanovschi,  Tao Wang,  A. Warshel,  
 C. F. Williams,  Q. Wu,  X. Xu,  W. Zhang

 Please cite Q-Chem as follows:
 Y. Shao et al., Mol. Phys. 113, 184-215 (2015)
 DOI: 10.1080/00268976.2014.952696

 Q-Chem 5.1.1 for Intel X86 EM64T Linux

 Parts of Q-Chem use Armadillo 8.300.2 (Tropical Shenanigans).
 http://arma.sourceforge.net/

 Q-Chem begins on Fri Oct 30 19:22:34 2020  

Host: n0081.mhg0
0

     Scratch files written to /local/scratch/users/yhljason/S2_HSE-HJS_aug-pc-4.inp20201030131818//
Input Ideriv = 2
Curr. Ideriv = -1
Max.  Ideriv = 2

Checking the input file for inconsistencies... 	...done.

--------------------------------------------------------------
User input:
--------------------------------------------------------------
$molecule
0 3
S1	0.0000	0.0000	0.0000
S2	0.0000	0.0000	1.8892
$end

$rem
jobtype sp
method HSE-HJS
xc_grid 000099000590
basis aug-pc-4
max_scf_cycles 200
thresh 14
scf_convergence 8
scf_algorithm gdm
symmetry false
sym_ignore true
unrestricted True
gen_scfman true
internal_stability_iter 15
internal_stability_davidson_iter 200
mem_total 64000
mem_static 1500
n_frozen_core 0
$end



--------------------------------------------------------------
 ----------------------------------------------------------------
             Standard Nuclear Orientation (Angstroms)
    I     Atom           X                Y                Z
 ----------------------------------------------------------------
    1      S       0.0000000000     0.0000000000     0.0000000000
    2      S       0.0000000000     0.0000000000     1.8892000000
 ----------------------------------------------------------------
 Nuclear Repulsion Energy =    71.7072654906 hartrees
 There are       17 alpha and       15 beta electrons
 Requested basis set is aug-pc-4
 There are 62 shells and 282 basis functions

 Total QAlloc Memory Limit  64000 MB
 Mega-Array Size      1467 MB
 MEM_STATIC part      1500 MB

                       Distance Matrix (Angstroms)
             S (  1)
   S (  2)  1.889200
 
 A cutoff of  1.0D-14 yielded   1940 shell pairs
 There are     40556 function pairs (     80505 Cartesian)
 
 -------------------------------------------------------
 OpenMP Integral Computing Module                       
 Release: version 1.0, May 2013, Q-Chem Inc. Pittsburgh 
 -------------------------------------------------------
 Integral Job Info:
 Integral job number is                      11
 Integral operator is                         1
 short-range coefficients              25000000
 long-range coefficients                      0
 Omega coefficients                         110
 if combine SR and LR in K                    1
 Integral screening is                        0
 Integral computing path is                   2
 max size of driver memory is           6400000
 size of driver memory is               5498286
 size of scratch memory is             28418842
 max col of scratch BK array             194481
 max len of scratch array in speh3         5572
 max len of scratch index in speh4           72
 max int batch size is                      520
 min int batch size is                       52
 fixed nKL is                                 7
 max L of basis functions is                  5
 order of int derivative is                   0
 number of shells is                         62
 number of basis is                         396
 number of cartesian basis is               396
 number of contracted shell pairs          1940
 number of primitive shell pairs          12380
 maxK2 (contraction) of shell pair          225
 max number of K2 of shell pair               1
 max number of CS2 of shell pair            144
 max number of PS2 of shell pair           1056
 mem total for path MDJ                  994974
 -------------------------------------------------------
 Smallest overlap matrix eigenvalue = 3.67E-06

 Scale SEOQF with 1.000000e-01/1.000000e-01/1.000000e-01

 Standard Electronic Orientation quadrupole field applied
 Nucleus-field energy     =    -0.0000000061 hartrees
 Guess from superposition of atomic densities
 Warning:  Energy on first SCF cycle will be non-variational
 SAD guess density has 32.000000 electrons

 -----------------------------------------------------------------------
  General SCF calculation program by
  Eric Jon Sundstrom, Paul Horn, Yuezhi Mao, Dmitri Zuev, Alec White,
  David Stuck, Shaama M.S., Shane Yost, Joonho Lee, David Small,
  Daniel Levine, Susi Lehtola, Hugh Burton, Evgeny Epifanovsky
 -----------------------------------------------------------------------
 Exchange:     0.2500 Hartree-Fock + 1.0000 PBE + -0.2500 wPBE + LR-HF
 Correlation:  1.0000 PBE
 Using Euler-Maclaurin-Lebedev (99,590) quadrature formula
Running Object-Oriented UKS (UHF)
performing a single roothaan step with Fock from read density so that orbitals are available to all algorithms
energy of the guess density (C=0) -796.310781965909
We will preform up to 15 macro iterations over saddle points until a stable solution is found
Energy prior to optimization (guess energy) = -796.135684908764
Begin Timing: Total SCF Calculation
Begin Timing: SCF Single Stationary Point Calculation
begin iterations for algorithm: GDM          
the SCF tolerance is set to 1.00e-08
    1    -796.1356849088      2.91e-02     00000  Normal BFGS step
    2    -796.1392372341      1.68e-02     00000  Normal BFGS step
    3    -796.1403140251      3.47e-03     00000  Normal BFGS step
    4    -796.1404003245      3.25e-04     00000  Normal BFGS step
    5    -796.1404015206      1.22e-04     00000  Normal BFGS step
    6    -796.1404016715      2.25e-05     00000  Normal BFGS step
    7    -796.1404016762      3.32e-06     00000  Normal BFGS step
    8    -796.1404016764      6.68e-07     00000  Normal BFGS step
    9    -796.1404016764      7.60e-07     00000  Normal BFGS step
   10    -796.1404016764      1.29e-06     00000  Normal BFGS step
   11    -796.1404016764      8.03e-09     00000 Convergence criterion met
Timing for Single Stationary Point: 2277.00s (wall), 18073.33s (cpu)
Begin Timing: Stability
===================================================
Beginning Test for Internal Stability
===================================================
generating davidson guess vectors based on koopmans excitations
    1      7.68e-01     00000 Davidson Iteration
    2      3.18e-01     00000 Davidson Iteration
    3      6.99e-03     00000 Davidson Iteration
    4      2.78e-03     00000 Davidson Iteration
    5      5.18e-04     00000 Davidson Iteration
    6      1.50e-04     00000 Davidson Iteration
    7      5.65e-05     00000 Davidson Iteration
    8      2.79e-04     00000 Davidson Iteration
    9      7.10e-05     00000 Davidson Iteration
   10      3.28e-04     00000 Davidson Iteration
   11      1.17e-04     00000 Davidson Iteration
   12      5.97e-05     00000 Davidson Converged
converged_eigenvalues
   0.1949
   0.3025
   0.1949
Threshold for negative eigenvalues: -1.0e-05
solution was a local minimum (stable)
===================================================
End Test for Internal Stability
===================================================
Our SCF solution is stable!
Timing for Total SCF: 7497.00s (wall), 59516.65s (cpu)
 Total energy in the final basis set =     -796.1404016764
<S^2> =          2.012263703
    ==================================================
              The end of Object-Oriented SCFman       
    ==================================================
 
 --------------------------------------------------------------
 
                    Orbital Energies (a.u.)
 --------------------------------------------------------------
 
 Alpha MOs
 -- Occupied --
-89.042 -89.042  -8.038  -8.038  -5.972  -5.972  -5.972  -5.972
 -5.970  -5.970  -0.849  -0.638  -0.402  -0.382  -0.382  -0.247
 -0.247
 -- Virtual --
 -0.029  -0.002   0.017   0.017   0.025   0.031   0.039   0.039
  0.065   0.065   0.078   0.097   0.097   0.098   0.124   0.124
  0.124   0.124   0.126   0.126   0.140   0.192   0.197   0.197
  0.203   0.205   0.205   0.216   0.218   0.218   0.219   0.219
  0.257   0.257   0.262   0.262   0.301   0.301   0.302   0.307
  0.345   0.345   0.350   0.350   0.376   0.394   0.394   0.408
  0.408   0.409   0.409   0.441   0.452   0.452   0.465   0.465
  0.473   0.484   0.484   0.485   0.485   0.513   0.513   0.543
  0.543   0.566   0.567   0.567   0.589   0.589   0.603   0.603
  0.607   0.643   0.649   0.649   0.658   0.658   0.660   0.660
  0.668   0.668   0.692   0.692   0.703   0.703   0.756   0.786
  0.802   0.802   0.811   0.811   0.816   0.816   0.876   0.876
  0.877   0.877   0.886   0.910   0.973   0.990   0.990   0.997
  0.997   1.020   1.020   1.070   1.070   1.158   1.230   1.238
  1.238   1.257   1.257   1.344   1.344   1.368   1.368   1.413
  1.461   1.461   1.467   1.481   1.481   1.718   1.788   1.788
  1.951   2.158   2.158   2.185   2.185   2.223   2.240   2.240
  2.339   2.339   2.355   2.355   2.413   2.413   2.488   2.488
  2.564   2.564   2.575   2.575   2.791   2.791   2.814   2.939
  3.118   3.128   3.163   3.163   3.169   3.169   3.208   3.208
  3.310   3.310   3.449   3.449   3.463   3.485   3.485   3.550
  3.550   3.733   3.763   3.763   3.782   3.788   3.788   4.037
  4.160   4.160   4.920   4.920   4.989   4.989   5.091   5.091
  5.160   5.160   5.172   5.188   5.188   5.212   5.212   5.316
  5.316   5.484   5.640   5.640   5.668   5.668   5.691   5.691
  5.815   5.815   5.950   5.950   6.098   6.315   6.315   6.596
  6.637   6.637   6.977   8.201   8.201   8.227   8.227   8.263
  8.263   8.317   8.317   8.386   8.386   8.630   8.743   8.743
  8.806   8.806   9.009   9.009   9.474  11.686  11.686  11.706
 11.706  11.748  11.748  11.776  11.776  11.820  11.820  11.844
 12.101  12.101  12.445  17.038  17.038  17.074  17.074  17.105
 17.105  17.183  17.183  17.633  17.703  27.302  30.829  62.783
 62.783  62.803  62.803  62.820  62.820  62.874  62.874  63.140
 63.166
 
 Beta MOs
 -- Occupied --
-89.036 -89.036  -8.031  -8.031  -5.967  -5.966  -5.959  -5.959
 -5.959  -5.959  -0.820  -0.576  -0.377  -0.328  -0.328
 -- Virtual --
 -0.146  -0.146  -0.014   0.005   0.021   0.021   0.032   0.034
  0.044   0.044   0.078   0.078   0.086   0.104   0.106   0.106
  0.131   0.131   0.134   0.134   0.137   0.137   0.145   0.197
  0.212   0.212   0.213   0.216   0.216   0.221   0.225   0.225
  0.237   0.237   0.265   0.265   0.288   0.288   0.306   0.312
  0.312   0.321   0.357   0.357   0.359   0.359   0.383   0.400
  0.400   0.418   0.418   0.425   0.425   0.450   0.473   0.473
  0.473   0.473   0.486   0.494   0.494   0.498   0.498   0.539
  0.539   0.556   0.556   0.572   0.573   0.573   0.602   0.602
  0.608   0.608   0.615   0.652   0.661   0.661   0.666   0.666
  0.678   0.678   0.684   0.684   0.698   0.698   0.713   0.713
  0.760   0.793   0.809   0.809   0.820   0.820   0.825   0.825
  0.886   0.886   0.890   0.890   0.899   0.917   0.996   1.013
  1.013   1.019   1.019   1.034   1.034   1.092   1.092   1.170
  1.249   1.269   1.269   1.279   1.279   1.384   1.384   1.393
  1.393   1.417   1.478   1.489   1.489   1.510   1.510   1.732
  1.807   1.807   1.965   2.185   2.185   2.197   2.197   2.237
  2.270   2.270   2.357   2.357   2.380   2.380   2.434   2.434
  2.532   2.532   2.582   2.582   2.622   2.622   2.824   2.824
  2.836   2.957   3.138   3.144   3.191   3.191   3.196   3.196
  3.257   3.257   3.359   3.359   3.474   3.474   3.474   3.514
  3.514   3.569   3.569   3.754   3.787   3.787   3.789   3.811
  3.811   4.040   4.180   4.180   4.948   4.948   5.013   5.013
  5.128   5.128   5.180   5.180   5.191   5.241   5.241   5.266
  5.266   5.355   5.355   5.494   5.662   5.662   5.697   5.697
  5.715   5.715   5.830   5.830   5.965   5.965   6.114   6.339
  6.339   6.618   6.657   6.657   6.991   8.232   8.232   8.272
  8.272   8.309   8.310   8.339   8.339   8.418   8.418   8.644
  8.765   8.765   8.821   8.821   9.024   9.024   9.480  11.691
 11.691  11.715  11.715  11.757  11.757  11.781  11.781  11.824
 11.824  11.847  12.103  12.103  12.446  17.051  17.051  17.087
 17.087  17.111  17.111  17.190  17.190  17.639  17.708  27.317
 30.843  62.799  62.799  62.819  62.819  62.829  62.829  62.883
 62.883  63.147  63.173
 --------------------------------------------------------------
 
          Ground-State Mulliken Net Atomic Charges

     Atom                 Charge (a.u.)    Spin (a.u.)
  --------------------------------------------------------
      1 S                    -0.000000       1.000000
      2 S                     0.000000       1.000000
  --------------------------------------------------------
  Sum of atomic charges =    -0.000000
  Sum of spin   charges =     2.000000

 -----------------------------------------------------------------
                    Cartesian Multipole Moments
 -----------------------------------------------------------------
    Charge (ESU x 10^10)
                -0.0000
    Dipole Moment (Debye)
         X      -0.0000      Y       0.0000      Z       0.0000
       Tot       0.0000
    Quadrupole Moments (Debye-Ang)
        XX     -25.8047     XY       0.0000     YY     -25.8047
        XZ       0.0000     YZ       0.0000     ZZ     -23.9939
    Octopole Moments (Debye-Ang^2)
       XXX       0.0000    XXY       0.0000    XYY       0.0000
       YYY      -0.0000    XXZ     -24.3751    XYZ       0.0000
       YYZ     -24.3751    XZZ       0.0000    YZZ       0.0000
       ZZZ     -67.9940
    Hexadecapole Moments (Debye-Ang^3)
      XXXX     -34.3647   XXXY       0.0000   XXYY     -11.4549
      XYYY       0.0000   YYYY     -34.3647   XXXZ       0.0000
      XXYZ       0.0000   XYYZ       0.0000   YYYZ       0.0000
      XXZZ     -57.3462   XYZZ       0.0000   YYZZ     -57.3462
      XZZZ       0.0000   YZZZ       0.0000   ZZZZ    -286.3206
 -----------------------------------------------------------------
Archival summary:
1\1\n0081.mhg0\SP\ProcedureUnspecified\BasisUnspecified\2(3)\yhljason\FriOct3021:32:032020FriOct3021:32:032020\0\\#,ProcedureUnspecified,BasisUnspecified,\\0,3\S\S,1,1.8892\\\@

 Total job time:  7769.32s(wall), 61630.92s(cpu) 
 Fri Oct 30 21:32:03 2020

        *************************************************************
        *                                                           *
        *  Thank you very much for using Q-Chem.  Have a nice day.  *
        *                                                           *
        *************************************************************


