Q-Chem Developer Version!
                  Welcome to Q-Chem
     A Quantum Leap Into The Future Of Chemistry


 Q-Chem 5.1, Q-Chem, Inc., Pleasanton, CA (2018)

 Yihan Shao,  Zhengting Gan,  E. Epifanovsky,  A. T. B. Gilbert,  M. Wormit,  
 J. Kussmann,  A. W. Lange,  A. Behn,  Jia Deng,  Xintian Feng,  D. Ghosh,  
 M. Goldey,  P. R. Horn,  L. D. Jacobson,  I. Kaliman,  T. Kus,  A. Landau,  
 Jie Liu,  E. I. Proynov,  R. M. Richard,  R. P. Steele,  E. J. Sundstrom,  
 H. L. Woodcock III,  P. M. Zimmerman,  D. Zuev,  B. Albrecht,  E. Alguire,  
 S. A. Baeppler,  D. Barton,  Z. Benda,  Y. A. Bernard,  E. J. Berquist,  
 K. B. Bravaya,  H. Burton,  D. Casanova,  Chun-Min Chang,  Yunqing Chen,  
 A. Chien,  K. D. Closser,  M. P. Coons,  S. Coriani,  S. Dasgupta,  
 A. L. Dempwolff,  M. Diedenhofen,  Hainam Do,  R. G. Edgar,  Po-Tung Fang,  
 S. Faraji,  S. Fatehi,  Qingguo Feng,  K. D. Fenk,  J. Fosso-Tande,  
 Qinghui Ge,  A. Ghysels,  G. Gidofalvi,  J. Gomes,  J. Gonthier,  A. Gunina,  
 D. Hait,  M. W. D. Hanson-Heine,  P. H. P. Harbach,  A. W. Hauser,  
 J. E. Herr,  E. G. Hohenstein,  Z. C. Holden,  Kerwin Hui,  B. C. Huynh,  
 T.-C. Jagau,  Hyunjun Ji,  B. Kaduk,  K. Khistyaev,  Jaehoon Kim,  
 P. Klunzinger,  K. Koh,  D. Kosenkov,  L. Koulias,  T. Kowalczyk,  
 C. M. Krauter,  A. Kunitsa,  Ka Un Lao,  A. Laurent,  K. V. Lawler,  
 Joonho Lee,  D. Lefrancois,  S. Lehtola,  D. S. Levine,  Yi-Pei Li,  
 You-Sheng Lin,  Fenglai Liu,  E. Livshits,  A. Luenser,  P. Manohar,  
 E. Mansoor,  S. F. Manzer,  Shan-Ping Mao,  Yuezhi Mao,  N. Mardirossian,  
 A. V. Marenich,  T. Markovich,  L. A. Martinez-Martinez,  S. A. Maurer,  
 N. J. Mayhall,  S. C. McKenzie,  J.-M. Mewes,  A. F. Morrison,  
 J. W. Mullinax,  K. Nanda,  T. S. Nguyen-Beck,  R. Olivares-Amaya,  
 J. A. Parkhill,  T. M. Perrine,  F. Plasser,  P. Pokhilko,  S. Prager,  
 A. Prociuk,  E. Ramos,  D. R. Rehn,  F. Rob,  M. Schneider,  N. Sergueev,  
 S. M. Sharada,  S. Sharma,  D. W. Small,  T. Stauch,  T. Stein,  
 Yu-Chuan Su,  A. J. W. Thom,  A. Tkatchenko,  T. Tsuchimochi,  N. M. Tubman,  
 L. Vogt,  M. L. Vidal,  O. Vydrov,  M. A. Watson,  J. Wenzel,  
 M. de Wergifosse,  T. A. Wesolowski,  A. White,  J. Witte,  A. Yamada,  
 Jun Yang,  K. Yao,  S. Yeganeh,  S. R. Yost,  Zhi-Qiang You,  A. Zech,  
 Igor Ying Zhang,  Xing Zhang,  Yan Zhao,  Ying Zhu,  B. R. Brooks,  
 G. K. L. Chan,  C. J. Cramer,  M. S. Gordon,  W. J. Hehre,  A. Klamt,  
 M. W. Schmidt,  C. D. Sherrill,  D. G. Truhlar,  A. Aspuru-Guzik,  R. Baer,  
 A. T. Bell,  N. A. Besley,  Jeng-Da Chai,  A. E. DePrince, III,  
 R. A. DiStasio Jr.,  A. Dreuw,  B. D. Dunietz,  T. R. Furlani,  
 Chao-Ping Hsu,  Yousung Jung,  Jing Kong,  D. S. Lambrecht,  WanZhen Liang,  
 C. Ochsenfeld,  V. A. Rassolov,  L. V. Slipchenko,  J. E. Subotnik,  
 T. Van Voorhis,  J. M. Herbert,  A. I. Krylov,  P. M. W. Gill,  M. Head-Gordon

 Contributors to earlier versions of Q-Chem not listed above: 
 R. D. Adamson,  B. Austin,  J. Baker,  G. J. O. Beran,  K. Brandhorst,  
 S. T. Brown,  E. F. C. Byrd,  A. K. Chakraborty,  C.-L. Cheng,  
 Siu Hung Chien,  D. M. Chipman,  D. L. Crittenden,  H. Dachsel,  
 R. J. Doerksen,  A. D. Dutoi,  L. Fusti-Molnar,  W. A. Goddard III,  
 A. Golubeva-Zadorozhnaya,  S. R. Gwaltney,  G. Hawkins,  A. Heyden,  
 S. Hirata,  G. Kedziora,  F. J. Keil,  C. Kelley,  Jihan Kim,  R. A. King,  
 R. Z. Khaliullin,  P. P. Korambath,  W. Kurlancheek,  A. M. Lee,  M. S. Lee,  
 S. V. Levchenko,  Ching Yeh Lin,  D. Liotard,  R. C. Lochan,  I. Lotan,  
 P. E. Maslen,  N. Nair,  D. P. O'Neill,  D. Neuhauser,  E. Neuscamman,  
 C. M. Oana,  R. Olson,  B. Peters,  R. Peverati,  P. A. Pieniazek,  
 Y. M. Rhee,  J. Ritchie,  M. A. Rohrdanz,  E. Rosta,  N. J. Russ,  
 H. F. Schaefer III,  N. E. Schultz,  N. Shenvi,  A. C. Simmonett,  A. Sodt,  
 D. Stuck,  K. S. Thanthiriwatte,  V. Vanovschi,  Tao Wang,  A. Warshel,  
 C. F. Williams,  Q. Wu,  X. Xu,  W. Zhang

 Please cite Q-Chem as follows:
 Y. Shao et al., Mol. Phys. 113, 184-215 (2015)
 DOI: 10.1080/00268976.2014.952696

 Q-Chem 5.1.1 for Intel X86 EM64T Linux

 Parts of Q-Chem use Armadillo 8.300.2 (Tropical Shenanigans).
 http://arma.sourceforge.net/

 Q-Chem begins on Fri Nov 13 04:03:41 2020  

Host: n0042.mhg0
0

     Scratch files written to /local/scratch/users/yhljason/BHCl2_ccsdT_aug-cc-pcVQZ.inp20201113040339//
Input Ideriv = 0
Curr. Ideriv = -1
Max.  Ideriv = 0

Checking the input file for inconsistencies... 	...done.

--------------------------------------------------------------
User input:
--------------------------------------------------------------
$molecule
0 1
B1      0.0000  0.0000  0.7189
H2      0.0000  0.0000  1.8489
Cl3     0.0000  1.5132  -0.1601
Cl4     0.0000  -1.5132 -0.1601
$end

$rem
jobtype sp
method CCSD(T)
xc_grid 000099000590
basis aug-cc-pcVQZ
max_scf_cycles 200
thresh 14
scf_convergence 8
scf_algorithm gdm
symmetry false
sym_ignore true
unrestricted True
gen_scfman true
internal_stability_iter 15
internal_stability_davidson_iter 200
mem_total 128000
cc_memory 96000
cc_backend xm
mem_static 1500
n_frozen_core 0
$end



--------------------------------------------------------------
 ----------------------------------------------------------------
             Standard Nuclear Orientation (Angstroms)
    I     Atom           X                Y                Z
 ----------------------------------------------------------------
    1      B       0.0000000000     0.0000000000     0.7189000000
    2      H       0.0000000000     0.0000000000     1.8489000000
    3      Cl      0.0000000000     1.5132000000    -0.1601000000
    4      Cl      0.0000000000    -1.5132000000    -0.1601000000
 ----------------------------------------------------------------
 Nuclear Repulsion Energy =   111.4342367647 hartrees
 There are       20 alpha and       20 beta electrons
 Requested basis set is aug-cc-pCVQZ
 There are 111 shells and 423 basis functions
 Total memory of 128000MB is distributed as follows: 
   QALLOC including MEM_STATIC uses 32000MB
   MEM_STATIC is set to 1500MB
   CCMAN JOB total memory use is  96000MB
 Warning: actual memory use might exceed 128000MB

 Total QAlloc Memory Limit  32000 MB
 Mega-Array Size      1467 MB
 MEM_STATIC part      1500 MB

                       Distance Matrix (Angstroms)
             B (  1)   H (  2)   Cl(  3)
   H (  2)  1.130000
   Cl(  3)  1.749976  2.515125
   Cl(  4)  1.749976  2.515125  3.026400
 
 A cutoff of  1.0D-14 yielded   5667 shell pairs
 There are     83587 function pairs (    138242 Cartesian)
 
 -------------------------------------------------------
 OpenMP Integral Computing Module                       
 Release: version 1.0, May 2013, Q-Chem Inc. Pittsburgh 
 -------------------------------------------------------
 Integral Job Info:
 Integral job number is                      11
 Integral operator is                         1
 short-range coefficients                     0
 long-range coefficients              100000000
 Omega coefficients                           0
 if combine SR and LR in K                    0
 Integral screening is                        0
 Integral computing path is                   2
 max size of driver memory is           3200000
 size of driver memory is               1704330
 size of scratch memory is             29435624
 max col of scratch BK array              50625
 max len of scratch array in speh3         2114
 max len of scratch index in speh4           50
 max int batch size is                      520
 min int batch size is                       52
 fixed nKL is                                22
 max L of basis functions is                  4
 order of int derivative is                   0
 number of shells is                        111
 number of basis is                         542
 number of cartesian basis is               542
 number of contracted shell pairs          5667
 number of primitive shell pairs          18939
 maxK2 (contraction) of shell pair          169
 max number of K2 of shell pair               1
 max number of CS2 of shell pair            608
 max number of PS2 of shell pair           2028
 mem total for path MDJ                  994816
 -------------------------------------------------------
 Smallest overlap matrix eigenvalue = 2.03E-05

 Scale SEOQF with 1.000000e-01/1.000000e-01/1.000000e-01

 Standard Electronic Orientation quadrupole field applied
 Nucleus-field energy     =     0.0000000048 hartrees
 Guess from superposition of atomic densities
 Warning:  Energy on first SCF cycle will be non-variational
 SAD guess density has 40.000000 electrons

 -----------------------------------------------------------------------
  General SCF calculation program by
  Eric Jon Sundstrom, Paul Horn, Yuezhi Mao, Dmitri Zuev, Alec White,
  David Stuck, Shaama M.S., Shane Yost, Joonho Lee, David Small,
  Daniel Levine, Susi Lehtola, Hugh Burton, Evgeny Epifanovsky
 -----------------------------------------------------------------------
Running Object-Oriented UHF
performing a single roothaan step with Fock from read density so that orbitals are available to all algorithms
energy of the guess density (C=0) -944.804154167647
We will preform up to 15 macro iterations over saddle points until a stable solution is found
Energy prior to optimization (guess energy) = -944.357982394595
Begin Timing: Total SCF Calculation
Begin Timing: SCF Single Stationary Point Calculation
begin iterations for algorithm: GDM          
the SCF tolerance is set to 1.00e-08
    1    -944.3579823946      7.21e-02     00000  Normal BFGS step
    2    -944.3904588571      3.82e-02     00000  Normal BFGS step
    3    -944.3998457347      4.31e-03     00000  Normal BFGS step
    4    -944.4001848532      1.46e-03     00000  Normal BFGS step
    5    -944.4002180661      4.09e-04     00000  Normal BFGS step
    6    -944.4002204839      1.08e-04     00000  Normal BFGS step
    7    -944.4002207102      2.59e-05     00000  Normal BFGS step
    8    -944.4002207206      9.47e-06     00000  Normal BFGS step
    9    -944.4002207217      3.27e-06     00000  Normal BFGS step
   10    -944.4002207218      5.71e-07     00000  Normal BFGS step
   11    -944.4002207218      8.85e-08     00000  Normal BFGS step
   12    -944.4002207218      2.49e-08     00000  Normal BFGS step
   13    -944.4002207218      6.72e-09     00000 Convergence criterion met
Timing for Single Stationary Point: 1659.00s (wall), 13164.05s (cpu)
Begin Timing: Stability
===================================================
Beginning Test for Internal Stability
===================================================
generating davidson guess vectors based on koopmans excitations
    1      1.37e+00     00000 Davidson Iteration
    2      1.32e+00     00000 Davidson Iteration
    3      1.87e-01     00000 Davidson Iteration
    4      1.00e-01     00000 Davidson Iteration
    5      1.57e-01     00000 Davidson Iteration
    6      1.01e-01     00000 Davidson Iteration
    7      1.06e-01     00000 Davidson Iteration
    8      9.94e-02     00000 Davidson Iteration
    9      9.65e-02     00000 Davidson Iteration
   10      1.81e-01     00000 Davidson Iteration
   11      8.47e-02     00000 Davidson Iteration
   12      3.70e-02     00000 Davidson Iteration
   13      2.31e-02     00000 Davidson Iteration
   14      1.34e-02     00000 Davidson Iteration
   15      9.50e-03     00000 Davidson Iteration
   16      4.33e-03     00000 Davidson Iteration
   17      2.44e-03     00000 Davidson Iteration
   18      1.74e-03     00000 Davidson Iteration
   19      5.74e-04     00000 Davidson Iteration
   20      4.37e-04     00000 Davidson Iteration
   21      1.60e-04     00000 Davidson Iteration
   22      1.54e-04     00000 Davidson Iteration
   23      1.82e-04     00000 Davidson Iteration
   24      1.35e-04     00000 Davidson Iteration
   25      1.01e-04     00000 Davidson Iteration
   26      4.84e-05     00000 Davidson Iteration
   27      2.52e-04     00000 Davidson Iteration
   28      1.60e-04     00000 Davidson Iteration
   29      5.20e-05     00000 Davidson Converged
converged_eigenvalues
   0.4060
   0.4037
Threshold for negative eigenvalues: -1.0e-05
solution was a local minimum (stable)
===================================================
End Test for Internal Stability
===================================================
Our SCF solution is stable!
Timing for Total SCF: 7345.00s (wall), 58282.36s (cpu)
 Total energy in the final basis set =     -944.4002207218
<S^2> =         -0.000000000
    ==================================================
              The end of Object-Oriented SCFman       
    ==================================================


 ------------------------------------------------------------------------------

   CCMAN2: suite of methods based on coupled cluster
           and equation of motion theories.

   Components:
   * libvmm-1.3-trunk
     by Evgeny Epifanovsky, Ilya Kaliman.
   * libtensor-2.5-trunk
     by Evgeny Epifanovsky, Michael Wormit, Dmitry Zuev, Sam Manzer, 
        Ilya Kaliman.
   * libcc-2.5-trunk
     by Evgeny Epifanovsky, Arik Landau, Tomasz Kus, Kirill Khistyaev, 
        Dmitry Zuev, Prashant Manohar, Xintian Feng, Anna Krylov, 
        Matthew Goldey, Alec White, Thomas Jagau, Kaushik Nanda, 
        Anastasia Gunina, Alexander Kunitsa, Joonho Lee.

   CCMAN original authors:
   Anna I. Krylov, C. David Sherrill, Steven R. Gwaltney,
   Edward F. C. Byrd (2000)
   Sergey V. Levchenko, Lyudmila V. Slipchenko, Tao Wang,
   Ana-Maria C. Cristian (2003)
   Piotr A. Pieniazek, C. Melania Oana, Evgeny Epifanovsky (2007)
   Prashant Manohar (2009)

 ------------------------------------------------------------------------------


 Calculation will run on 8 cores using libxm for tensor contractions

 ------------------------------------------------------------------------------
Libxm Tensor Library
Copyright (c) 2014-2018 Ilya Kaliman
https://github.com/ilyak/libxm
Reference: https://dx.doi.org/10.1002/jcc.24713
 ------------------------------------------------------------------------------

 
 Alpha MOs, Unrestricted
 -- Occupied --                  
-104.85 -104.85  -10.58  -10.58   -8.04   -8.04   -8.04   -8.04
  1 A     2 A     3 A     4 A     5 A     6 A     7 A     8 A                  
 -8.043  -8.043  -7.716  -1.148  -1.106  -0.717  -0.604  -0.577
  9 A    10 A    11 A    12 A    13 A    14 A    15 A    16 A                  
 -0.522  -0.473  -0.469  -0.463
 17 A    18 A    19 A    20 A                                                  
 -- Virtual --                   
  0.032   0.036   0.038   0.041   0.068   0.073   0.089   0.102
 21 A    22 A    23 A    24 A    25 A    26 A    27 A    28 A                  
  0.108   0.119   0.127   0.135   0.141   0.142   0.149   0.169
 29 A    30 A    31 A    32 A    33 A    34 A    35 A    36 A                  
  0.179   0.198   0.205   0.242   0.243   0.256   0.266   0.274
 37 A    38 A    39 A    40 A    41 A    42 A    43 A    44 A                  
  0.276   0.281   0.299   0.310   0.321   0.324   0.334   0.359
 45 A    46 A    47 A    48 A    49 A    50 A    51 A    52 A                  
  0.362   0.378   0.383   0.405   0.446   0.454   0.459   0.459
 53 A    54 A    55 A    56 A    57 A    58 A    59 A    60 A                  
  0.482   0.501   0.516   0.532   0.541   0.548   0.551   0.554
 61 A    62 A    63 A    64 A    65 A    66 A    67 A    68 A                  
  0.579   0.582   0.584   0.592   0.597   0.605   0.662   0.705
 69 A    70 A    71 A    72 A    73 A    74 A    75 A    76 A                  
  0.707   0.736   0.745   0.763   0.769   0.770   0.821   0.822
 77 A    78 A    79 A    80 A    81 A    82 A    83 A    84 A                  
  0.822   0.849   0.868   0.885   0.901   0.916   0.921   0.938
 85 A    86 A    87 A    88 A    89 A    90 A    91 A    92 A                  
  0.944   0.949   0.963   0.977   0.978   1.053   1.069   1.073
 93 A    94 A    95 A    96 A    97 A    98 A    99 A   100 A                  
  1.074   1.089   1.094   1.111   1.119   1.142   1.169   1.187
101 A   102 A   103 A   104 A   105 A   106 A   107 A   108 A                  
  1.192   1.210   1.234   1.240   1.301   1.430   1.457   1.481
109 A   110 A   111 A   112 A   113 A   114 A   115 A   116 A                  
  1.503   1.529   1.540   1.558   1.567   1.577   1.577   1.584
117 A   118 A   119 A   120 A   121 A   122 A   123 A   124 A                  
  1.634   1.658   1.671   1.674   1.714   1.733   1.750   1.754
125 A   126 A   127 A   128 A   129 A   130 A   131 A   132 A                  
  1.755   1.768   1.787   1.788   1.796   1.827   1.850   1.855
133 A   134 A   135 A   136 A   137 A   138 A   139 A   140 A                  
  1.893   1.912   1.920   1.954   1.967   1.987   1.988   2.016
141 A   142 A   143 A   144 A   145 A   146 A   147 A   148 A                  
  2.047   2.055   2.081   2.110   2.133   2.133   2.150   2.151
149 A   150 A   151 A   152 A   153 A   154 A   155 A   156 A                  
  2.151   2.156   2.173   2.179   2.218   2.231   2.256   2.258
157 A   158 A   159 A   160 A   161 A   162 A   163 A   164 A                  
  2.289   2.303   2.326   2.333   2.338   2.375   2.387   2.401
165 A   166 A   167 A   168 A   169 A   170 A   171 A   172 A                  
  2.404   2.420   2.471   2.472   2.487   2.566   2.607   2.672
173 A   174 A   175 A   176 A   177 A   178 A   179 A   180 A                  
  2.676   2.686   2.749   2.774   2.796   2.862   2.867   2.972
181 A   182 A   183 A   184 A   185 A   186 A   187 A   188 A                  
  2.973   3.024   3.087   3.089   3.152   3.190   3.249   3.261
189 A   190 A   191 A   192 A   193 A   194 A   195 A   196 A                  
  3.392   3.457   3.498   3.718   3.735   3.835   3.864   3.970
197 A   198 A   199 A   200 A   201 A   202 A   203 A   204 A                  
  3.974   4.066   4.077   4.121   4.130   4.134   4.143   4.185
205 A   206 A   207 A   208 A   209 A   210 A   211 A   212 A                  
  4.242   4.251   4.262   4.286   4.288   4.301   4.311   4.367
213 A   214 A   215 A   216 A   217 A   218 A   219 A   220 A                  
  4.381   4.410   4.428   4.437   4.485   4.511   4.657   4.690
221 A   222 A   223 A   224 A   225 A   226 A   227 A   228 A                  
  4.711   4.715   4.716   4.732   4.738   4.739   4.752   4.791
229 A   230 A   231 A   232 A   233 A   234 A   235 A   236 A                  
  4.811   4.843   4.845   4.849   4.856   4.877   4.886   4.922
237 A   238 A   239 A   240 A   241 A   242 A   243 A   244 A                  
  4.940   4.945   4.973   5.006   5.009   5.043   5.057   5.063
245 A   246 A   247 A   248 A   249 A   250 A   251 A   252 A                  
  5.072   5.117   5.144   5.205   5.388   5.397   5.407   5.491
253 A   254 A   255 A   256 A   257 A   258 A   259 A   260 A                  
  5.507   5.605   5.656   5.694   5.755   5.949   5.987   6.105
261 A   262 A   263 A   264 A   265 A   266 A   267 A   268 A                  
  6.221   6.257   6.277   6.413   6.517   6.851   6.886   7.490
269 A   270 A   271 A   272 A   273 A   274 A   275 A   276 A                  
  7.548   7.620   7.665   7.828   7.941   8.131   8.269   8.829
277 A   278 A   279 A   280 A   281 A   282 A   283 A   284 A                  
  9.197   9.280   9.390   9.432   9.622   9.834  10.164  10.512
285 A   286 A   287 A   288 A   289 A   290 A   291 A   292 A                  
 10.584  11.866  12.195  12.209  12.230  12.253  12.420  12.426
293 A   294 A   295 A   296 A   297 A   298 A   299 A   300 A                  
 12.672  12.706  12.788  12.923  12.950  14.319  14.532  18.249
301 A   302 A   303 A   304 A   305 A   306 A   307 A   308 A                  
 18.347  18.486  18.542  19.184  19.198  19.982  20.039  20.149
309 A   310 A   311 A   312 A   313 A   314 A   315 A   316 A                  
 20.347  21.097  21.696  21.700  21.701  21.701  21.749  21.762
317 A   318 A   319 A   320 A   321 A   322 A   323 A   324 A                  
 21.764  21.764  21.774  21.783  21.810  21.827  21.883  21.947
325 A   326 A   327 A   328 A   329 A   330 A   331 A   332 A                  
 25.572  34.311  34.368  37.979  37.993  38.006  38.016  38.134
333 A   334 A   335 A   336 A   337 A   338 A   339 A   340 A                  
 38.162  38.300  38.332  38.508  38.515  45.044  46.037  46.179
341 A   342 A   343 A   344 A   345 A   346 A   347 A   348 A                  
 52.303  52.379  52.491  52.535  53.084  53.103  65.583  65.583
349 A   350 A   351 A   352 A   353 A   354 A   355 A   356 A                  
 65.583  65.583  65.583  65.585  65.585  65.585  65.585  65.585
357 A   358 A   359 A   360 A   361 A   362 A   363 A   364 A                  
 65.586  65.586  65.587  65.587  65.587  65.587  65.588  65.588
365 A   366 A   367 A   368 A   369 A   370 A   371 A   372 A                  
 75.879  75.883  75.886  75.893  75.909  75.922  75.925  76.148
373 A   374 A   375 A   376 A   377 A   378 A   379 A   380 A                  
 76.150  76.150  76.150  76.176  76.182  76.183  76.184  76.188
381 A   382 A   383 A   384 A   385 A   386 A   387 A   388 A                  
 76.191  76.205  76.211  76.232  76.252  84.192  86.246  86.260
389 A   390 A   391 A   392 A   393 A   394 A   395 A   396 A                  
 86.363  86.433  86.853  98.743  98.818 111.150 111.161 111.170
397 A   398 A   399 A   400 A   401 A   402 A   403 A   404 A                  
111.176 111.262 111.284 111.382 111.405 111.531 111.532 152.324
405 A   406 A   407 A   408 A   409 A   410 A   411 A   412 A                  
153.118 153.236 167.228 167.274 167.340 167.366 167.696 167.709
413 A   414 A   415 A   416 A   417 A   418 A   419 A   420 A                  
349.633 458.391 458.730
421 A   422 A   423 A                                                          
 
 Beta MOs, Unrestricted
 -- Occupied --                  
-104.85 -104.85  -10.58  -10.58   -8.04   -8.04   -8.04   -8.04
  1 A     2 A     3 A     4 A     5 A     6 A     7 A     8 A                  
 -8.043  -8.043  -7.716  -1.148  -1.106  -0.717  -0.604  -0.577
  9 A    10 A    11 A    12 A    13 A    14 A    15 A    16 A                  
 -0.522  -0.473  -0.469  -0.463
 17 A    18 A    19 A    20 A                                                  
 -- Virtual --                   
  0.032   0.036   0.038   0.041   0.068   0.073   0.089   0.102
 21 A    22 A    23 A    24 A    25 A    26 A    27 A    28 A                  
  0.108   0.119   0.127   0.135   0.141   0.142   0.149   0.169
 29 A    30 A    31 A    32 A    33 A    34 A    35 A    36 A                  
  0.179   0.198   0.205   0.242   0.243   0.256   0.266   0.274
 37 A    38 A    39 A    40 A    41 A    42 A    43 A    44 A                  
  0.276   0.281   0.299   0.310   0.321   0.324   0.334   0.359
 45 A    46 A    47 A    48 A    49 A    50 A    51 A    52 A                  
  0.362   0.378   0.383   0.405   0.446   0.454   0.459   0.459
 53 A    54 A    55 A    56 A    57 A    58 A    59 A    60 A                  
  0.482   0.501   0.516   0.532   0.541   0.548   0.551   0.554
 61 A    62 A    63 A    64 A    65 A    66 A    67 A    68 A                  
  0.579   0.582   0.584   0.592   0.597   0.605   0.662   0.705
 69 A    70 A    71 A    72 A    73 A    74 A    75 A    76 A                  
  0.707   0.736   0.745   0.763   0.769   0.770   0.821   0.822
 77 A    78 A    79 A    80 A    81 A    82 A    83 A    84 A                  
  0.822   0.849   0.868   0.885   0.901   0.916   0.921   0.938
 85 A    86 A    87 A    88 A    89 A    90 A    91 A    92 A                  
  0.944   0.949   0.963   0.977   0.978   1.053   1.069   1.073
 93 A    94 A    95 A    96 A    97 A    98 A    99 A   100 A                  
  1.074   1.089   1.094   1.111   1.119   1.142   1.169   1.187
101 A   102 A   103 A   104 A   105 A   106 A   107 A   108 A                  
  1.192   1.210   1.234   1.240   1.301   1.430   1.457   1.481
109 A   110 A   111 A   112 A   113 A   114 A   115 A   116 A                  
  1.503   1.529   1.540   1.558   1.567   1.577   1.577   1.584
117 A   118 A   119 A   120 A   121 A   122 A   123 A   124 A                  
  1.634   1.658   1.671   1.674   1.714   1.733   1.750   1.754
125 A   126 A   127 A   128 A   129 A   130 A   131 A   132 A                  
  1.755   1.768   1.787   1.788   1.796   1.827   1.850   1.855
133 A   134 A   135 A   136 A   137 A   138 A   139 A   140 A                  
  1.893   1.912   1.920   1.954   1.967   1.987   1.988   2.016
141 A   142 A   143 A   144 A   145 A   146 A   147 A   148 A                  
  2.047   2.055   2.081   2.110   2.133   2.133   2.150   2.151
149 A   150 A   151 A   152 A   153 A   154 A   155 A   156 A                  
  2.151   2.156   2.173   2.179   2.218   2.231   2.256   2.258
157 A   158 A   159 A   160 A   161 A   162 A   163 A   164 A                  
  2.289   2.303   2.326   2.333   2.338   2.375   2.387   2.401
165 A   166 A   167 A   168 A   169 A   170 A   171 A   172 A                  
  2.404   2.420   2.471   2.472   2.487   2.566   2.607   2.672
173 A   174 A   175 A   176 A   177 A   178 A   179 A   180 A                  
  2.676   2.686   2.749   2.774   2.796   2.862   2.867   2.972
181 A   182 A   183 A   184 A   185 A   186 A   187 A   188 A                  
  2.973   3.024   3.087   3.089   3.152   3.190   3.249   3.261
189 A   190 A   191 A   192 A   193 A   194 A   195 A   196 A                  
  3.392   3.457   3.498   3.718   3.735   3.835   3.864   3.970
197 A   198 A   199 A   200 A   201 A   202 A   203 A   204 A                  
  3.974   4.066   4.077   4.121   4.130   4.134   4.143   4.185
205 A   206 A   207 A   208 A   209 A   210 A   211 A   212 A                  
  4.242   4.251   4.262   4.286   4.288   4.301   4.311   4.367
213 A   214 A   215 A   216 A   217 A   218 A   219 A   220 A                  
  4.381   4.410   4.428   4.437   4.485   4.511   4.657   4.690
221 A   222 A   223 A   224 A   225 A   226 A   227 A   228 A                  
  4.711   4.715   4.716   4.732   4.738   4.739   4.752   4.791
229 A   230 A   231 A   232 A   233 A   234 A   235 A   236 A                  
  4.811   4.843   4.845   4.849   4.856   4.877   4.886   4.922
237 A   238 A   239 A   240 A   241 A   242 A   243 A   244 A                  
  4.940   4.945   4.973   5.006   5.009   5.043   5.057   5.063
245 A   246 A   247 A   248 A   249 A   250 A   251 A   252 A                  
  5.072   5.117   5.144   5.205   5.388   5.397   5.407   5.491
253 A   254 A   255 A   256 A   257 A   258 A   259 A   260 A                  
  5.507   5.605   5.656   5.694   5.755   5.949   5.987   6.105
261 A   262 A   263 A   264 A   265 A   266 A   267 A   268 A                  
  6.221   6.257   6.277   6.413   6.517   6.851   6.886   7.490
269 A   270 A   271 A   272 A   273 A   274 A   275 A   276 A                  
  7.548   7.620   7.665   7.828   7.941   8.131   8.269   8.829
277 A   278 A   279 A   280 A   281 A   282 A   283 A   284 A                  
  9.197   9.280   9.390   9.432   9.622   9.834  10.164  10.512
285 A   286 A   287 A   288 A   289 A   290 A   291 A   292 A                  
 10.584  11.866  12.195  12.209  12.230  12.253  12.420  12.426
293 A   294 A   295 A   296 A   297 A   298 A   299 A   300 A                  
 12.672  12.706  12.788  12.923  12.950  14.319  14.532  18.249
301 A   302 A   303 A   304 A   305 A   306 A   307 A   308 A                  
 18.347  18.486  18.542  19.184  19.198  19.982  20.039  20.149
309 A   310 A   311 A   312 A   313 A   314 A   315 A   316 A                  
 20.347  21.097  21.696  21.700  21.701  21.701  21.749  21.762
317 A   318 A   319 A   320 A   321 A   322 A   323 A   324 A                  
 21.764  21.764  21.774  21.783  21.810  21.827  21.883  21.947
325 A   326 A   327 A   328 A   329 A   330 A   331 A   332 A                  
 25.572  34.311  34.368  37.979  37.993  38.006  38.016  38.134
333 A   334 A   335 A   336 A   337 A   338 A   339 A   340 A                  
 38.162  38.300  38.332  38.508  38.515  45.044  46.037  46.179
341 A   342 A   343 A   344 A   345 A   346 A   347 A   348 A                  
 52.303  52.379  52.491  52.535  53.084  53.103  65.583  65.583
349 A   350 A   351 A   352 A   353 A   354 A   355 A   356 A                  
 65.583  65.583  65.583  65.585  65.585  65.585  65.585  65.585
357 A   358 A   359 A   360 A   361 A   362 A   363 A   364 A                  
 65.586  65.586  65.587  65.587  65.587  65.587  65.588  65.588
365 A   366 A   367 A   368 A   369 A   370 A   371 A   372 A                  
 75.879  75.883  75.886  75.893  75.909  75.922  75.925  76.148
373 A   374 A   375 A   376 A   377 A   378 A   379 A   380 A                  
 76.150  76.150  76.150  76.176  76.182  76.183  76.184  76.188
381 A   382 A   383 A   384 A   385 A   386 A   387 A   388 A                  
 76.191  76.205  76.211  76.232  76.252  84.192  86.246  86.260
389 A   390 A   391 A   392 A   393 A   394 A   395 A   396 A                  
 86.363  86.433  86.853  98.743  98.818 111.150 111.161 111.170
397 A   398 A   399 A   400 A   401 A   402 A   403 A   404 A                  
111.176 111.262 111.284 111.382 111.405 111.531 111.532 152.324
405 A   406 A   407 A   408 A   409 A   410 A   411 A   412 A                  
153.118 153.236 167.228 167.274 167.340 167.366 167.696 167.709
413 A   414 A   415 A   416 A   417 A   418 A   419 A   420 A                  
349.633 458.391 458.730
421 A   422 A   423 A                                                          

 Occupation and symmetry of molecular orbitals

 Point group: C1 (1 irreducible representation).

                           A     All 
 -------------------------------------
 All molecular orbitals:
  - Alpha                  423   423 
  - Beta                   423   423 
 -------------------------------------
 Alpha orbitals:
  - Frozen occupied        0     0   
  - Active occupied        20    20  
  - Active virtual         403   403 
  - Frozen virtual         0     0   
 -------------------------------------
 Beta orbitals:
  - Frozen occupied        0     0   
  - Active occupied        20    20  
  - Active virtual         403   403 
  - Frozen virtual         0     0   
 -------------------------------------

 Import integrals:   CPU 0.00 s  wall 0.00 s

 Import integrals:   CPU 46261.30 s  wall 9866.88 s

 MP2 amplitudes:   CPU 114.39 s  wall 83.20 s

Running a double precision version
           CCSD T amplitudes will be solved using DIIS.

           Start     Size      MaxIter   EConv     TConv     
           3         7         100       1.00e-06  1.00e-04  
 ------------------------------------------------------------------------------
           Energy (a.u.)   Ediff      Tdiff       Comment
 ------------------------------------------------------------------------------
          -945.76912379                           
     1    -945.78135108   1.22e-02   7.82e-01     Step took 50.34.
     2    -945.79559680   1.42e-02   8.07e-02     
     3    -945.79625063   6.54e-04   2.55e-02     
     4    -945.79720649   9.56e-04   7.99e-03     Switched to DIIS steps.
     5    -945.79749268   2.86e-04   5.07e-03     
     6    -945.79750039   7.71e-06   1.31e-03     
     7    -945.79750348   3.08e-06   5.92e-04     
     8    -945.79750507   1.60e-06   1.43e-04     
     9    -945.79750549   4.21e-07   4.14e-05     
 ------------------------------------------------------------------------------
          -945.79750549                           CCSD T converged.

End of double precision

----------------------------------------
libpt (c) 2016-2018 Ilya Kaliman
Fast Coupled Cluster Triples Corrections
https://github.com/ilyak/libpt
----------------------------------------

 Starting (T) calculation...
 Using double precision libpt code
 
User input: 2 of 7 
 
Q-Chem Developer Version!
                  Welcome to Q-Chem
     A Quantum Leap Into The Future Of Chemistry


 Q-Chem 5.1, Q-Chem, Inc., Pleasanton, CA (2018)

 Yihan Shao,  Zhengting Gan,  E. Epifanovsky,  A. T. B. Gilbert,  M. Wormit,  
 J. Kussmann,  A. W. Lange,  A. Behn,  Jia Deng,  Xintian Feng,  D. Ghosh,  
 M. Goldey,  P. R. Horn,  L. D. Jacobson,  I. Kaliman,  T. Kus,  A. Landau,  
 Jie Liu,  E. I. Proynov,  R. M. Richard,  R. P. Steele,  E. J. Sundstrom,  
 H. L. Woodcock III,  P. M. Zimmerman,  D. Zuev,  B. Albrecht,  E. Alguire,  
 S. A. Baeppler,  D. Barton,  Z. Benda,  Y. A. Bernard,  E. J. Berquist,  
 K. B. Bravaya,  H. Burton,  D. Casanova,  Chun-Min Chang,  Yunqing Chen,  
 A. Chien,  K. D. Closser,  M. P. Coons,  S. Coriani,  S. Dasgupta,  
 A. L. Dempwolff,  M. Diedenhofen,  Hainam Do,  R. G. Edgar,  Po-Tung Fang,  
 S. Faraji,  S. Fatehi,  Qingguo Feng,  K. D. Fenk,  J. Fosso-Tande,  
 Qinghui Ge,  A. Ghysels,  G. Gidofalvi,  J. Gomes,  J. Gonthier,  A. Gunina,  
 D. Hait,  M. W. D. Hanson-Heine,  P. H. P. Harbach,  A. W. Hauser,  
 J. E. Herr,  E. G. Hohenstein,  Z. C. Holden,  Kerwin Hui,  B. C. Huynh,  
 T.-C. Jagau,  Hyunjun Ji,  B. Kaduk,  K. Khistyaev,  Jaehoon Kim,  
 P. Klunzinger,  K. Koh,  D. Kosenkov,  L. Koulias,  T. Kowalczyk,  
 C. M. Krauter,  A. Kunitsa,  Ka Un Lao,  A. Laurent,  K. V. Lawler,  
 Joonho Lee,  D. Lefrancois,  S. Lehtola,  D. S. Levine,  Yi-Pei Li,  
 You-Sheng Lin,  Fenglai Liu,  E. Livshits,  A. Luenser,  P. Manohar,  
 E. Mansoor,  S. F. Manzer,  Shan-Ping Mao,  Yuezhi Mao,  N. Mardirossian,  
 A. V. Marenich,  T. Markovich,  L. A. Martinez-Martinez,  S. A. Maurer,  
 N. J. Mayhall,  S. C. McKenzie,  J.-M. Mewes,  A. F. Morrison,  
 J. W. Mullinax,  K. Nanda,  T. S. Nguyen-Beck,  R. Olivares-Amaya,  
 J. A. Parkhill,  T. M. Perrine,  F. Plasser,  P. Pokhilko,  S. Prager,  
 A. Prociuk,  E. Ramos,  D. R. Rehn,  F. Rob,  M. Schneider,  N. Sergueev,  
 S. M. Sharada,  S. Sharma,  D. W. Small,  T. Stauch,  T. Stein,  
 Yu-Chuan Su,  A. J. W. Thom,  A. Tkatchenko,  T. Tsuchimochi,  N. M. Tubman,  
 L. Vogt,  M. L. Vidal,  O. Vydrov,  M. A. Watson,  J. Wenzel,  
 M. de Wergifosse,  T. A. Wesolowski,  A. White,  J. Witte,  A. Yamada,  
 Jun Yang,  K. Yao,  S. Yeganeh,  S. R. Yost,  Zhi-Qiang You,  A. Zech,  
 Igor Ying Zhang,  Xing Zhang,  Yan Zhao,  Ying Zhu,  B. R. Brooks,  
 G. K. L. Chan,  C. J. Cramer,  M. S. Gordon,  W. J. Hehre,  A. Klamt,  
 M. W. Schmidt,  C. D. Sherrill,  D. G. Truhlar,  A. Aspuru-Guzik,  R. Baer,  
 A. T. Bell,  N. A. Besley,  Jeng-Da Chai,  A. E. DePrince, III,  
 R. A. DiStasio Jr.,  A. Dreuw,  B. D. Dunietz,  T. R. Furlani,  
 Chao-Ping Hsu,  Yousung Jung,  Jing Kong,  D. S. Lambrecht,  WanZhen Liang,  
 C. Ochsenfeld,  V. A. Rassolov,  L. V. Slipchenko,  J. E. Subotnik,  
 T. Van Voorhis,  J. M. Herbert,  A. I. Krylov,  P. M. W. Gill,  M. Head-Gordon

 Contributors to earlier versions of Q-Chem not listed above: 
 R. D. Adamson,  B. Austin,  J. Baker,  G. J. O. Beran,  K. Brandhorst,  
 S. T. Brown,  E. F. C. Byrd,  A. K. Chakraborty,  C.-L. Cheng,  
 Siu Hung Chien,  D. M. Chipman,  D. L. Crittenden,  H. Dachsel,  
 R. J. Doerksen,  A. D. Dutoi,  L. Fusti-Molnar,  W. A. Goddard III,  
 A. Golubeva-Zadorozhnaya,  S. R. Gwaltney,  G. Hawkins,  A. Heyden,  
 S. Hirata,  G. Kedziora,  F. J. Keil,  C. Kelley,  Jihan Kim,  R. A. King,  
 R. Z. Khaliullin,  P. P. Korambath,  W. Kurlancheek,  A. M. Lee,  M. S. Lee,  
 S. V. Levchenko,  Ching Yeh Lin,  D. Liotard,  R. C. Lochan,  I. Lotan,  
 P. E. Maslen,  N. Nair,  D. P. O'Neill,  D. Neuhauser,  E. Neuscamman,  
 C. M. Oana,  R. Olson,  B. Peters,  R. Peverati,  P. A. Pieniazek,  
 Y. M. Rhee,  J. Ritchie,  M. A. Rohrdanz,  E. Rosta,  N. J. Russ,  
 H. F. Schaefer III,  N. E. Schultz,  N. Shenvi,  A. C. Simmonett,  A. Sodt,  
 D. Stuck,  K. S. Thanthiriwatte,  V. Vanovschi,  Tao Wang,  A. Warshel,  
 C. F. Williams,  Q. Wu,  X. Xu,  W. Zhang

 Please cite Q-Chem as follows:
 Y. Shao et al., Mol. Phys. 113, 184-215 (2015)
 DOI: 10.1080/00268976.2014.952696

 Q-Chem 5.1.1 for Intel X86 EM64T Linux

 Parts of Q-Chem use Armadillo 8.300.2 (Tropical Shenanigans).
 http://arma.sourceforge.net/

 Q-Chem begins on Fri Nov 13 17:13:21 2020  

Host: n0042.mhg0
0

     Scratch files written to /local/scratch/users/yhljason/BHCl2_ccsdT_aug-cc-pcVQZ.inp20201113040339//
The previous job contains 0 fragments, simply inherited here
Input Ideriv = 0
Curr. Ideriv = -1
Max.  Ideriv = 0

Checking the input file for inconsistencies... 	...done.

--------------------------------------------------------------
User input:
--------------------------------------------------------------
$molecule
read
$end

$rem

jobtype sp
method CCSD(T)
xc_grid 000099000590
basis aug-cc-pcVQZ
max_scf_cycles 200
thresh 14
scf_convergence 8
mem_total 128000
cc_memory 96000
cc_backend xm
mem_static 1500
symmetry false
sym_ignore true
scf_guess read
unrestricted True
scf_algorithm gdm
n_frozen_core 0
$end

$multipole_field
XX 0.0001
$end




--------------------------------------------------------------
 ----------------------------------------------------------------
             Standard Nuclear Orientation (Angstroms)
    I     Atom           X                Y                Z
 ----------------------------------------------------------------
    1      B       0.0000000000     0.0000000000     0.7189000000
    2      H       0.0000000000     0.0000000000     1.8489000000
    3      Cl      0.0000000000     1.5132000000    -0.1601000000
    4      Cl      0.0000000000    -1.5132000000    -0.1601000000
 ----------------------------------------------------------------
 Nuclear Repulsion Energy =   111.4342367647 hartrees
 There are       20 alpha and       20 beta electrons
 Requested basis set is aug-cc-pCVQZ
 There are 111 shells and 423 basis functions
 Total memory of 128000MB is distributed as follows: 
   QALLOC including MEM_STATIC uses 32000MB
   MEM_STATIC is set to 1500MB
   CCMAN JOB total memory use is  96000MB
 Warning: actual memory use might exceed 128000MB

 Total QAlloc Memory Limit  32000 MB
 Mega-Array Size      1467 MB
 MEM_STATIC part      1500 MB

                       Distance Matrix (Angstroms)
             B (  1)   H (  2)   Cl(  3)
   H (  2)  1.130000
   Cl(  3)  1.749976  2.515125
   Cl(  4)  1.749976  2.515125  3.026400
 
 Applying Cartesian multipole field
    Component          Value
    ---------          -----
     (2,0,0)        1.00000E-04
 A cutoff of  1.0D-14 yielded   5667 shell pairs
 There are     83587 function pairs (    138242 Cartesian)
 
 -------------------------------------------------------
 OpenMP Integral Computing Module                       
 Release: version 1.0, May 2013, Q-Chem Inc. Pittsburgh 
 -------------------------------------------------------
 Integral Job Info:
 Integral job number is                      11
 Integral operator is                         1
 short-range coefficients                     0
 long-range coefficients              100000000
 Omega coefficients                           0
 if combine SR and LR in K                    0
 Integral screening is                        0
 Integral computing path is                   2
 max size of driver memory is           3200000
 size of driver memory is               1704330
 size of scratch memory is             29435624
 max col of scratch BK array              50625
 max len of scratch array in speh3         2114
 max len of scratch index in speh4           50
 max int batch size is                      520
 min int batch size is                       52
 fixed nKL is                                22
 max L of basis functions is                  4
 order of int derivative is                   0
 number of shells is                        111
 number of basis is                         542
 number of cartesian basis is               542
 number of contracted shell pairs          5667
 number of primitive shell pairs          18939
 maxK2 (contraction) of shell pair          169
 max number of K2 of shell pair               1
 max number of CS2 of shell pair            608
 max number of PS2 of shell pair           2028
 mem total for path MDJ                  994816
 -------------------------------------------------------
 Smallest overlap matrix eigenvalue = 2.03E-05
 Guess MOs from SCF MO coefficient file

 -----------------------------------------------------------------------
  General SCF calculation program by
  Eric Jon Sundstrom, Paul Horn, Yuezhi Mao, Dmitri Zuev, Alec White,
  David Stuck, Shaama M.S., Shane Yost, Joonho Lee, David Small,
  Daniel Levine, Susi Lehtola, Hugh Burton, Evgeny Epifanovsky
 -----------------------------------------------------------------------
 Hartree-Fock
 using 8 threads for integral computing
 -------------------------------------------------------
 OpenMP Integral computing Module                
 Release: version 2.0, May 2017, Q-Chem Inc. Pleasanton 
 -------------------------------------------------------
 A unrestricted SCF calculation will be
 performed using GDM
 SCF converges when RMS gradient is below 1.0e-08
 ---------------------------------------
  Cycle       Energy        RMS Gradient
 ---------------------------------------
    1    -944.4025114447      2.41e-04   Normal BFGS step
    2    -944.4025121030      4.95e-05   Normal BFGS step
    3    -944.4025121499      8.33e-06   Normal BFGS step
    4    -944.4025121516      1.69e-06   Normal BFGS step
    5    -944.4025121518      9.60e-07   Normal BFGS step
    6    -944.4025121518      3.32e-07   Normal BFGS step
    7    -944.4025121518      1.08e-07   Normal BFGS step
    8    -944.4025121518      2.06e-08   Normal BFGS step
    9    -944.4025121518      4.67e-09  Convergence criterion met
 ---------------------------------------
 SCF time:   CPU 10108.07s  wall 1275.00s 
<S^2> =         -0.000000000
 SCF   energy in the final basis set =     -944.4025121518
 Total energy in the final basis set =     -944.4025121518


 ------------------------------------------------------------------------------

   CCMAN2: suite of methods based on coupled cluster
           and equation of motion theories.

   Components:
   * libvmm-1.3-trunk
     by Evgeny Epifanovsky, Ilya Kaliman.
   * libtensor-2.5-trunk
     by Evgeny Epifanovsky, Michael Wormit, Dmitry Zuev, Sam Manzer, 
        Ilya Kaliman.
   * libcc-2.5-trunk
     by Evgeny Epifanovsky, Arik Landau, Tomasz Kus, Kirill Khistyaev, 
        Dmitry Zuev, Prashant Manohar, Xintian Feng, Anna Krylov, 
        Matthew Goldey, Alec White, Thomas Jagau, Kaushik Nanda, 
        Anastasia Gunina, Alexander Kunitsa, Joonho Lee.

   CCMAN original authors:
   Anna I. Krylov, C. David Sherrill, Steven R. Gwaltney,
   Edward F. C. Byrd (2000)
   Sergey V. Levchenko, Lyudmila V. Slipchenko, Tao Wang,
   Ana-Maria C. Cristian (2003)
   Piotr A. Pieniazek, C. Melania Oana, Evgeny Epifanovsky (2007)
   Prashant Manohar (2009)

 ------------------------------------------------------------------------------


 Calculation will run on 8 cores using libxm for tensor contractions

 ------------------------------------------------------------------------------
Libxm Tensor Library
Copyright (c) 2014-2018 Ilya Kaliman
https://github.com/ilyak/libxm
Reference: https://dx.doi.org/10.1002/jcc.24713
 ------------------------------------------------------------------------------

 
 Alpha MOs, Unrestricted
 -- Occupied --                  
-104.85 -104.85  -10.58  -10.58   -8.04   -8.04   -8.04   -8.04
  1 A     2 A     3 A     4 A     5 A     6 A     7 A     8 A                  
 -8.043  -8.043  -7.716  -1.149  -1.106  -0.717  -0.604  -0.577
  9 A    10 A    11 A    12 A    13 A    14 A    15 A    16 A                  
 -0.522  -0.474  -0.469  -0.464
 17 A    18 A    19 A    20 A                                                  
 -- Virtual --                   
  0.030   0.032   0.033   0.038   0.067   0.072   0.087   0.100
 21 A    22 A    23 A    24 A    25 A    26 A    27 A    28 A                  
  0.105   0.117   0.123   0.134   0.138   0.140   0.147   0.167
 29 A    30 A    31 A    32 A    33 A    34 A    35 A    36 A                  
  0.177   0.197   0.204   0.240   0.241   0.255   0.265   0.273
 37 A    38 A    39 A    40 A    41 A    42 A    43 A    44 A                  
  0.275   0.280   0.298   0.308   0.320   0.324   0.333   0.358
 45 A    46 A    47 A    48 A    49 A    50 A    51 A    52 A                  
  0.361   0.377   0.382   0.403   0.445   0.452   0.458   0.459
 53 A    54 A    55 A    56 A    57 A    58 A    59 A    60 A                  
  0.481   0.500   0.515   0.531   0.540   0.547   0.551   0.553
 61 A    62 A    63 A    64 A    65 A    66 A    67 A    68 A                  
  0.578   0.581   0.583   0.591   0.596   0.604   0.661   0.705
 69 A    70 A    71 A    72 A    73 A    74 A    75 A    76 A                  
  0.706   0.735   0.744   0.762   0.768   0.769   0.821   0.821
 77 A    78 A    79 A    80 A    81 A    82 A    83 A    84 A                  
  0.822   0.848   0.867   0.884   0.901   0.916   0.920   0.937
 85 A    86 A    87 A    88 A    89 A    90 A    91 A    92 A                  
  0.944   0.949   0.963   0.976   0.977   1.052   1.068   1.073
 93 A    94 A    95 A    96 A    97 A    98 A    99 A   100 A                  
  1.074   1.088   1.093   1.111   1.118   1.142   1.168   1.187
101 A   102 A   103 A   104 A   105 A   106 A   107 A   108 A                  
  1.191   1.210   1.234   1.239   1.300   1.429   1.457   1.481
109 A   110 A   111 A   112 A   113 A   114 A   115 A   116 A                  
  1.502   1.529   1.539   1.557   1.567   1.576   1.577   1.583
117 A   118 A   119 A   120 A   121 A   122 A   123 A   124 A                  
  1.634   1.658   1.671   1.674   1.713   1.732   1.749   1.754
125 A   126 A   127 A   128 A   129 A   130 A   131 A   132 A                  
  1.754   1.768   1.787   1.788   1.796   1.827   1.850   1.855
133 A   134 A   135 A   136 A   137 A   138 A   139 A   140 A                  
  1.892   1.912   1.919   1.954   1.966   1.987   1.987   2.016
141 A   142 A   143 A   144 A   145 A   146 A   147 A   148 A                  
  2.047   2.054   2.081   2.110   2.132   2.133   2.149   2.150
149 A   150 A   151 A   152 A   153 A   154 A   155 A   156 A                  
  2.151   2.155   2.172   2.178   2.218   2.231   2.256   2.258
157 A   158 A   159 A   160 A   161 A   162 A   163 A   164 A                  
  2.289   2.302   2.326   2.333   2.338   2.374   2.387   2.400
165 A   166 A   167 A   168 A   169 A   170 A   171 A   172 A                  
  2.403   2.419   2.471   2.471   2.486   2.566   2.606   2.672
173 A   174 A   175 A   176 A   177 A   178 A   179 A   180 A                  
  2.676   2.685   2.749   2.774   2.796   2.861   2.866   2.972
181 A   182 A   183 A   184 A   185 A   186 A   187 A   188 A                  
  2.972   3.023   3.087   3.089   3.152   3.190   3.248   3.260
189 A   190 A   191 A   192 A   193 A   194 A   195 A   196 A                  
  3.392   3.456   3.498   3.718   3.735   3.835   3.864   3.970
197 A   198 A   199 A   200 A   201 A   202 A   203 A   204 A                  
  3.973   4.066   4.076   4.121   4.130   4.134   4.143   4.185
205 A   206 A   207 A   208 A   209 A   210 A   211 A   212 A                  
  4.241   4.250   4.262   4.285   4.288   4.301   4.311   4.366
213 A   214 A   215 A   216 A   217 A   218 A   219 A   220 A                  
  4.380   4.410   4.428   4.436   4.485   4.511   4.656   4.690
221 A   222 A   223 A   224 A   225 A   226 A   227 A   228 A                  
  4.711   4.715   4.715   4.732   4.738   4.739   4.752   4.791
229 A   230 A   231 A   232 A   233 A   234 A   235 A   236 A                  
  4.810   4.842   4.844   4.849   4.856   4.876   4.885   4.921
237 A   238 A   239 A   240 A   241 A   242 A   243 A   244 A                  
  4.940   4.945   4.973   5.006   5.009   5.042   5.057   5.063
245 A   246 A   247 A   248 A   249 A   250 A   251 A   252 A                  
  5.072   5.117   5.144   5.205   5.388   5.396   5.407   5.491
253 A   254 A   255 A   256 A   257 A   258 A   259 A   260 A                  
  5.507   5.604   5.656   5.694   5.755   5.949   5.987   6.105
261 A   262 A   263 A   264 A   265 A   266 A   267 A   268 A                  
  6.221   6.256   6.277   6.413   6.516   6.851   6.886   7.490
269 A   270 A   271 A   272 A   273 A   274 A   275 A   276 A                  
  7.548   7.620   7.665   7.828   7.940   8.131   8.269   8.829
277 A   278 A   279 A   280 A   281 A   282 A   283 A   284 A                  
  9.197   9.280   9.389   9.431   9.622   9.834  10.164  10.512
285 A   286 A   287 A   288 A   289 A   290 A   291 A   292 A                  
 10.584  11.866  12.194  12.209  12.229  12.253  12.420  12.426
293 A   294 A   295 A   296 A   297 A   298 A   299 A   300 A                  
 12.672  12.706  12.788  12.923  12.950  14.319  14.531  18.248
301 A   302 A   303 A   304 A   305 A   306 A   307 A   308 A                  
 18.346  18.486  18.542  19.183  19.197  19.981  20.038  20.148
309 A   310 A   311 A   312 A   313 A   314 A   315 A   316 A                  
 20.346  21.097  21.696  21.700  21.701  21.701  21.749  21.761
317 A   318 A   319 A   320 A   321 A   322 A   323 A   324 A                  
 21.763  21.764  21.774  21.782  21.809  21.827  21.882  21.946
325 A   326 A   327 A   328 A   329 A   330 A   331 A   332 A                  
 25.572  34.311  34.368  37.979  37.992  38.005  38.016  38.134
333 A   334 A   335 A   336 A   337 A   338 A   339 A   340 A                  
 38.161  38.299  38.332  38.508  38.515  45.044  46.036  46.179
341 A   342 A   343 A   344 A   345 A   346 A   347 A   348 A                  
 52.303  52.379  52.491  52.535  53.084  53.103  65.583  65.583
349 A   350 A   351 A   352 A   353 A   354 A   355 A   356 A                  
 65.583  65.583  65.583  65.584  65.584  65.585  65.585  65.585
357 A   358 A   359 A   360 A   361 A   362 A   363 A   364 A                  
 65.585  65.585  65.587  65.587  65.587  65.587  65.588  65.588
365 A   366 A   367 A   368 A   369 A   370 A   371 A   372 A                  
 75.879  75.883  75.886  75.893  75.909  75.922  75.925  76.147
373 A   374 A   375 A   376 A   377 A   378 A   379 A   380 A                  
 76.150  76.150  76.150  76.175  76.182  76.183  76.184  76.188
381 A   382 A   383 A   384 A   385 A   386 A   387 A   388 A                  
 76.191  76.205  76.210  76.231  76.251  84.192  86.245  86.260
389 A   390 A   391 A   392 A   393 A   394 A   395 A   396 A                  
 86.362  86.432  86.853  98.743  98.818 111.150 111.161 111.169
397 A   398 A   399 A   400 A   401 A   402 A   403 A   404 A                  
111.176 111.262 111.283 111.382 111.404 111.531 111.532 152.324
405 A   406 A   407 A   408 A   409 A   410 A   411 A   412 A                  
153.118 153.236 167.228 167.274 167.340 167.365 167.696 167.709
413 A   414 A   415 A   416 A   417 A   418 A   419 A   420 A                  
349.633 458.391 458.730
421 A   422 A   423 A                                                          
 
 Beta MOs, Unrestricted
 -- Occupied --                  
-104.85 -104.85  -10.58  -10.58   -8.04   -8.04   -8.04   -8.04
  1 A     2 A     3 A     4 A     5 A     6 A     7 A     8 A                  
 -8.043  -8.043  -7.716  -1.149  -1.106  -0.717  -0.604  -0.577
  9 A    10 A    11 A    12 A    13 A    14 A    15 A    16 A                  
 -0.522  -0.474  -0.469  -0.464
 17 A    18 A    19 A    20 A                                                  
 -- Virtual --                   
  0.030   0.032   0.033   0.038   0.067   0.072   0.087   0.100
 21 A    22 A    23 A    24 A    25 A    26 A    27 A    28 A                  
  0.105   0.117   0.123   0.134   0.138   0.140   0.147   0.167
 29 A    30 A    31 A    32 A    33 A    34 A    35 A    36 A                  
  0.177   0.197   0.204   0.240   0.241   0.255   0.265   0.273
 37 A    38 A    39 A    40 A    41 A    42 A    43 A    44 A                  
  0.275   0.280   0.298   0.308   0.320   0.324   0.333   0.358
 45 A    46 A    47 A    48 A    49 A    50 A    51 A    52 A                  
  0.361   0.377   0.382   0.403   0.445   0.452   0.458   0.459
 53 A    54 A    55 A    56 A    57 A    58 A    59 A    60 A                  
  0.481   0.500   0.515   0.531   0.540   0.547   0.551   0.553
 61 A    62 A    63 A    64 A    65 A    66 A    67 A    68 A                  
  0.578   0.581   0.583   0.591   0.596   0.604   0.661   0.705
 69 A    70 A    71 A    72 A    73 A    74 A    75 A    76 A                  
  0.706   0.735   0.744   0.762   0.768   0.769   0.821   0.821
 77 A    78 A    79 A    80 A    81 A    82 A    83 A    84 A                  
  0.822   0.848   0.867   0.884   0.901   0.916   0.920   0.937
 85 A    86 A    87 A    88 A    89 A    90 A    91 A    92 A                  
  0.944   0.949   0.963   0.976   0.977   1.052   1.068   1.073
 93 A    94 A    95 A    96 A    97 A    98 A    99 A   100 A                  
  1.074   1.088   1.093   1.111   1.118   1.142   1.168   1.187
101 A   102 A   103 A   104 A   105 A   106 A   107 A   108 A                  
  1.191   1.210   1.234   1.239   1.300   1.429   1.457   1.481
109 A   110 A   111 A   112 A   113 A   114 A   115 A   116 A                  
  1.502   1.529   1.539   1.557   1.567   1.576   1.577   1.583
117 A   118 A   119 A   120 A   121 A   122 A   123 A   124 A                  
  1.634   1.658   1.671   1.674   1.713   1.732   1.749   1.754
125 A   126 A   127 A   128 A   129 A   130 A   131 A   132 A                  
  1.754   1.768   1.787   1.788   1.796   1.827   1.850   1.855
133 A   134 A   135 A   136 A   137 A   138 A   139 A   140 A                  
  1.892   1.912   1.919   1.954   1.966   1.987   1.987   2.016
141 A   142 A   143 A   144 A   145 A   146 A   147 A   148 A                  
  2.047   2.054   2.081   2.110   2.132   2.133   2.149   2.150
149 A   150 A   151 A   152 A   153 A   154 A   155 A   156 A                  
  2.151   2.155   2.172   2.178   2.218   2.231   2.256   2.258
157 A   158 A   159 A   160 A   161 A   162 A   163 A   164 A                  
  2.289   2.302   2.326   2.333   2.338   2.374   2.387   2.400
165 A   166 A   167 A   168 A   169 A   170 A   171 A   172 A                  
  2.403   2.419   2.471   2.471   2.486   2.566   2.606   2.672
173 A   174 A   175 A   176 A   177 A   178 A   179 A   180 A                  
  2.676   2.685   2.749   2.774   2.796   2.861   2.866   2.972
181 A   182 A   183 A   184 A   185 A   186 A   187 A   188 A                  
  2.972   3.023   3.087   3.089   3.152   3.190   3.248   3.260
189 A   190 A   191 A   192 A   193 A   194 A   195 A   196 A                  
  3.392   3.456   3.498   3.718   3.735   3.835   3.864   3.970
197 A   198 A   199 A   200 A   201 A   202 A   203 A   204 A                  
  3.973   4.066   4.076   4.121   4.130   4.134   4.143   4.185
205 A   206 A   207 A   208 A   209 A   210 A   211 A   212 A                  
  4.241   4.250   4.262   4.285   4.288   4.301   4.311   4.366
213 A   214 A   215 A   216 A   217 A   218 A   219 A   220 A                  
  4.380   4.410   4.428   4.436   4.485   4.511   4.656   4.690
221 A   222 A   223 A   224 A   225 A   226 A   227 A   228 A                  
  4.711   4.715   4.715   4.732   4.738   4.739   4.752   4.791
229 A   230 A   231 A   232 A   233 A   234 A   235 A   236 A                  
  4.810   4.842   4.844   4.849   4.856   4.876   4.885   4.921
237 A   238 A   239 A   240 A   241 A   242 A   243 A   244 A                  
  4.940   4.945   4.973   5.006   5.009   5.042   5.057   5.063
245 A   246 A   247 A   248 A   249 A   250 A   251 A   252 A                  
  5.072   5.117   5.144   5.205   5.388   5.396   5.407   5.491
253 A   254 A   255 A   256 A   257 A   258 A   259 A   260 A                  
  5.507   5.604   5.656   5.694   5.755   5.949   5.987   6.105
261 A   262 A   263 A   264 A   265 A   266 A   267 A   268 A                  
  6.221   6.256   6.277   6.413   6.516   6.851   6.886   7.490
269 A   270 A   271 A   272 A   273 A   274 A   275 A   276 A                  
  7.548   7.620   7.665   7.828   7.940   8.131   8.269   8.829
277 A   278 A   279 A   280 A   281 A   282 A   283 A   284 A                  
  9.197   9.280   9.389   9.431   9.622   9.834  10.164  10.512
285 A   286 A   287 A   288 A   289 A   290 A   291 A   292 A                  
 10.584  11.866  12.194  12.209  12.229  12.253  12.420  12.426
293 A   294 A   295 A   296 A   297 A   298 A   299 A   300 A                  
 12.672  12.706  12.788  12.923  12.950  14.319  14.531  18.248
301 A   302 A   303 A   304 A   305 A   306 A   307 A   308 A                  
 18.346  18.486  18.542  19.183  19.197  19.981  20.038  20.148
309 A   310 A   311 A   312 A   313 A   314 A   315 A   316 A                  
 20.346  21.097  21.696  21.700  21.701  21.701  21.749  21.761
317 A   318 A   319 A   320 A   321 A   322 A   323 A   324 A                  
 21.763  21.764  21.774  21.782  21.809  21.827  21.882  21.946
325 A   326 A   327 A   328 A   329 A   330 A   331 A   332 A                  
 25.572  34.311  34.368  37.979  37.992  38.005  38.016  38.134
333 A   334 A   335 A   336 A   337 A   338 A   339 A   340 A                  
 38.161  38.299  38.332  38.508  38.515  45.044  46.036  46.179
341 A   342 A   343 A   344 A   345 A   346 A   347 A   348 A                  
 52.303  52.379  52.491  52.535  53.084  53.103  65.583  65.583
349 A   350 A   351 A   352 A   353 A   354 A   355 A   356 A                  
 65.583  65.583  65.583  65.584  65.584  65.585  65.585  65.585
357 A   358 A   359 A   360 A   361 A   362 A   363 A   364 A                  
 65.585  65.585  65.587  65.587  65.587  65.587  65.588  65.588
365 A   366 A   367 A   368 A   369 A   370 A   371 A   372 A                  
 75.879  75.883  75.886  75.893  75.909  75.922  75.925  76.147
373 A   374 A   375 A   376 A   377 A   378 A   379 A   380 A                  
 76.150  76.150  76.150  76.175  76.182  76.183  76.184  76.188
381 A   382 A   383 A   384 A   385 A   386 A   387 A   388 A                  
 76.191  76.205  76.210  76.231  76.251  84.192  86.245  86.260
389 A   390 A   391 A   392 A   393 A   394 A   395 A   396 A                  
 86.362  86.432  86.853  98.743  98.818 111.150 111.161 111.169
397 A   398 A   399 A   400 A   401 A   402 A   403 A   404 A                  
111.176 111.262 111.283 111.382 111.404 111.531 111.532 152.324
405 A   406 A   407 A   408 A   409 A   410 A   411 A   412 A                  
153.118 153.236 167.228 167.274 167.340 167.365 167.696 167.709
413 A   414 A   415 A   416 A   417 A   418 A   419 A   420 A                  
349.633 458.391 458.730
421 A   422 A   423 A                                                          

 Occupation and symmetry of molecular orbitals

 Point group: C1 (1 irreducible representation).

                           A     All 
 -------------------------------------
 All molecular orbitals:
  - Alpha                  423   423 
  - Beta                   423   423 
 -------------------------------------
 Alpha orbitals:
  - Frozen occupied        0     0   
  - Active occupied        20    20  
  - Active virtual         403   403 
  - Frozen virtual         0     0   
 -------------------------------------
 Beta orbitals:
  - Frozen occupied        0     0   
  - Active occupied        20    20  
  - Active virtual         403   403 
  - Frozen virtual         0     0   
 -------------------------------------

 Import integrals:   CPU 0.00 s  wall 0.00 s

 Import integrals:   CPU 46533.16 s  wall 9864.34 s

 MP2 amplitudes:   CPU 114.88 s  wall 88.39 s

Running a double precision version
           CCSD T amplitudes will be solved using DIIS.

           Start     Size      MaxIter   EConv     TConv     
           3         7         100       1.00e-06  1.00e-04  
 ------------------------------------------------------------------------------
           Energy (a.u.)   Ediff      Tdiff       Comment
 ------------------------------------------------------------------------------
          -945.77141315                           
     1    -945.78363246   1.22e-02   7.82e-01     Step took 52.02.
     2    -945.79787832   1.42e-02   8.07e-02     
     3    -945.79853189   6.54e-04   2.55e-02     
     4    -945.79948767   9.56e-04   7.99e-03     Switched to DIIS steps.
     5    -945.79977378   2.86e-04   5.07e-03     
     6    -945.79978148   7.70e-06   1.31e-03     
     7    -945.79978457   3.08e-06   5.92e-04     
     8    -945.79978616   1.60e-06   1.43e-04     
     9    -945.79978658   4.21e-07   4.15e-05     
 ------------------------------------------------------------------------------
          -945.79978658                           CCSD T converged.

End of double precision

----------------------------------------
libpt (c) 2016-2018 Ilya Kaliman
Fast Coupled Cluster Triples Corrections
https://github.com/ilyak/libpt
----------------------------------------

 Starting (T) calculation...
 Using double precision libpt code
 
User input: 3 of 7 
 
Q-Chem Developer Version!
                  Welcome to Q-Chem
     A Quantum Leap Into The Future Of Chemistry


 Q-Chem 5.1, Q-Chem, Inc., Pleasanton, CA (2018)

 Yihan Shao,  Zhengting Gan,  E. Epifanovsky,  A. T. B. Gilbert,  M. Wormit,  
 J. Kussmann,  A. W. Lange,  A. Behn,  Jia Deng,  Xintian Feng,  D. Ghosh,  
 M. Goldey,  P. R. Horn,  L. D. Jacobson,  I. Kaliman,  T. Kus,  A. Landau,  
 Jie Liu,  E. I. Proynov,  R. M. Richard,  R. P. Steele,  E. J. Sundstrom,  
 H. L. Woodcock III,  P. M. Zimmerman,  D. Zuev,  B. Albrecht,  E. Alguire,  
 S. A. Baeppler,  D. Barton,  Z. Benda,  Y. A. Bernard,  E. J. Berquist,  
 K. B. Bravaya,  H. Burton,  D. Casanova,  Chun-Min Chang,  Yunqing Chen,  
 A. Chien,  K. D. Closser,  M. P. Coons,  S. Coriani,  S. Dasgupta,  
 A. L. Dempwolff,  M. Diedenhofen,  Hainam Do,  R. G. Edgar,  Po-Tung Fang,  
 S. Faraji,  S. Fatehi,  Qingguo Feng,  K. D. Fenk,  J. Fosso-Tande,  
 Qinghui Ge,  A. Ghysels,  G. Gidofalvi,  J. Gomes,  J. Gonthier,  A. Gunina,  
 D. Hait,  M. W. D. Hanson-Heine,  P. H. P. Harbach,  A. W. Hauser,  
 J. E. Herr,  E. G. Hohenstein,  Z. C. Holden,  Kerwin Hui,  B. C. Huynh,  
 T.-C. Jagau,  Hyunjun Ji,  B. Kaduk,  K. Khistyaev,  Jaehoon Kim,  
 P. Klunzinger,  K. Koh,  D. Kosenkov,  L. Koulias,  T. Kowalczyk,  
 C. M. Krauter,  A. Kunitsa,  Ka Un Lao,  A. Laurent,  K. V. Lawler,  
 Joonho Lee,  D. Lefrancois,  S. Lehtola,  D. S. Levine,  Yi-Pei Li,  
 You-Sheng Lin,  Fenglai Liu,  E. Livshits,  A. Luenser,  P. Manohar,  
 E. Mansoor,  S. F. Manzer,  Shan-Ping Mao,  Yuezhi Mao,  N. Mardirossian,  
 A. V. Marenich,  T. Markovich,  L. A. Martinez-Martinez,  S. A. Maurer,  
 N. J. Mayhall,  S. C. McKenzie,  J.-M. Mewes,  A. F. Morrison,  
 J. W. Mullinax,  K. Nanda,  T. S. Nguyen-Beck,  R. Olivares-Amaya,  
 J. A. Parkhill,  T. M. Perrine,  F. Plasser,  P. Pokhilko,  S. Prager,  
 A. Prociuk,  E. Ramos,  D. R. Rehn,  F. Rob,  M. Schneider,  N. Sergueev,  
 S. M. Sharada,  S. Sharma,  D. W. Small,  T. Stauch,  T. Stein,  
 Yu-Chuan Su,  A. J. W. Thom,  A. Tkatchenko,  T. Tsuchimochi,  N. M. Tubman,  
 L. Vogt,  M. L. Vidal,  O. Vydrov,  M. A. Watson,  J. Wenzel,  
 M. de Wergifosse,  T. A. Wesolowski,  A. White,  J. Witte,  A. Yamada,  
 Jun Yang,  K. Yao,  S. Yeganeh,  S. R. Yost,  Zhi-Qiang You,  A. Zech,  
 Igor Ying Zhang,  Xing Zhang,  Yan Zhao,  Ying Zhu,  B. R. Brooks,  
 G. K. L. Chan,  C. J. Cramer,  M. S. Gordon,  W. J. Hehre,  A. Klamt,  
 M. W. Schmidt,  C. D. Sherrill,  D. G. Truhlar,  A. Aspuru-Guzik,  R. Baer,  
 A. T. Bell,  N. A. Besley,  Jeng-Da Chai,  A. E. DePrince, III,  
 R. A. DiStasio Jr.,  A. Dreuw,  B. D. Dunietz,  T. R. Furlani,  
 Chao-Ping Hsu,  Yousung Jung,  Jing Kong,  D. S. Lambrecht,  WanZhen Liang,  
 C. Ochsenfeld,  V. A. Rassolov,  L. V. Slipchenko,  J. E. Subotnik,  
 T. Van Voorhis,  J. M. Herbert,  A. I. Krylov,  P. M. W. Gill,  M. Head-Gordon

 Contributors to earlier versions of Q-Chem not listed above: 
 R. D. Adamson,  B. Austin,  J. Baker,  G. J. O. Beran,  K. Brandhorst,  
 S. T. Brown,  E. F. C. Byrd,  A. K. Chakraborty,  C.-L. Cheng,  
 Siu Hung Chien,  D. M. Chipman,  D. L. Crittenden,  H. Dachsel,  
 R. J. Doerksen,  A. D. Dutoi,  L. Fusti-Molnar,  W. A. Goddard III,  
 A. Golubeva-Zadorozhnaya,  S. R. Gwaltney,  G. Hawkins,  A. Heyden,  
 S. Hirata,  G. Kedziora,  F. J. Keil,  C. Kelley,  Jihan Kim,  R. A. King,  
 R. Z. Khaliullin,  P. P. Korambath,  W. Kurlancheek,  A. M. Lee,  M. S. Lee,  
 S. V. Levchenko,  Ching Yeh Lin,  D. Liotard,  R. C. Lochan,  I. Lotan,  
 P. E. Maslen,  N. Nair,  D. P. O'Neill,  D. Neuhauser,  E. Neuscamman,  
 C. M. Oana,  R. Olson,  B. Peters,  R. Peverati,  P. A. Pieniazek,  
 Y. M. Rhee,  J. Ritchie,  M. A. Rohrdanz,  E. Rosta,  N. J. Russ,  
 H. F. Schaefer III,  N. E. Schultz,  N. Shenvi,  A. C. Simmonett,  A. Sodt,  
 D. Stuck,  K. S. Thanthiriwatte,  V. Vanovschi,  Tao Wang,  A. Warshel,  
 C. F. Williams,  Q. Wu,  X. Xu,  W. Zhang

 Please cite Q-Chem as follows:
 Y. Shao et al., Mol. Phys. 113, 184-215 (2015)
 DOI: 10.1080/00268976.2014.952696

 Q-Chem 5.1.1 for Intel X86 EM64T Linux

 Parts of Q-Chem use Armadillo 8.300.2 (Tropical Shenanigans).
 http://arma.sourceforge.net/

 Q-Chem begins on Sat Nov 14 04:46:25 2020  

Host: n0042.mhg0
0

     Scratch files written to /local/scratch/users/yhljason/BHCl2_ccsdT_aug-cc-pcVQZ.inp20201113040339//
The previous job contains 0 fragments, simply inherited here
Input Ideriv = 0
Curr. Ideriv = -1
Max.  Ideriv = 0

Checking the input file for inconsistencies... 	...done.

--------------------------------------------------------------
User input:
--------------------------------------------------------------
$molecule
read
$end

$rem

jobtype sp
method CCSD(T)
xc_grid 000099000590
basis aug-cc-pcVQZ
max_scf_cycles 200
thresh 14
scf_convergence 8
mem_total 128000
cc_memory 96000
cc_backend xm
mem_static 1500
symmetry false
sym_ignore true
scf_guess read
unrestricted True
scf_algorithm gdm
n_frozen_core 0
$end

$multipole_field
XX -0.0001
$end




--------------------------------------------------------------
 ----------------------------------------------------------------
             Standard Nuclear Orientation (Angstroms)
    I     Atom           X                Y                Z
 ----------------------------------------------------------------
    1      B       0.0000000000     0.0000000000     0.7189000000
    2      H       0.0000000000     0.0000000000     1.8489000000
    3      Cl      0.0000000000     1.5132000000    -0.1601000000
    4      Cl      0.0000000000    -1.5132000000    -0.1601000000
 ----------------------------------------------------------------
 Nuclear Repulsion Energy =   111.4342367647 hartrees
 There are       20 alpha and       20 beta electrons
 Requested basis set is aug-cc-pCVQZ
 There are 111 shells and 423 basis functions
 Total memory of 128000MB is distributed as follows: 
   QALLOC including MEM_STATIC uses 32000MB
   MEM_STATIC is set to 1500MB
   CCMAN JOB total memory use is  96000MB
 Warning: actual memory use might exceed 128000MB

 Total QAlloc Memory Limit  32000 MB
 Mega-Array Size      1467 MB
 MEM_STATIC part      1500 MB

                       Distance Matrix (Angstroms)
             B (  1)   H (  2)   Cl(  3)
   H (  2)  1.130000
   Cl(  3)  1.749976  2.515125
   Cl(  4)  1.749976  2.515125  3.026400
 
 Applying Cartesian multipole field
    Component          Value
    ---------          -----
     (2,0,0)       -1.00000E-04
 A cutoff of  1.0D-14 yielded   5667 shell pairs
 There are     83587 function pairs (    138242 Cartesian)
 
 -------------------------------------------------------
 OpenMP Integral Computing Module                       
 Release: version 1.0, May 2013, Q-Chem Inc. Pittsburgh 
 -------------------------------------------------------
 Integral Job Info:
 Integral job number is                      11
 Integral operator is                         1
 short-range coefficients                     0
 long-range coefficients              100000000
 Omega coefficients                           0
 if combine SR and LR in K                    0
 Integral screening is                        0
 Integral computing path is                   2
 max size of driver memory is           3200000
 size of driver memory is               1704330
 size of scratch memory is             29435624
 max col of scratch BK array              50625
 max len of scratch array in speh3         2114
 max len of scratch index in speh4           50
 max int batch size is                      520
 min int batch size is                       52
 fixed nKL is                                22
 max L of basis functions is                  4
 order of int derivative is                   0
 number of shells is                        111
 number of basis is                         542
 number of cartesian basis is               542
 number of contracted shell pairs          5667
 number of primitive shell pairs          18939
 maxK2 (contraction) of shell pair          169
 max number of K2 of shell pair               1
 max number of CS2 of shell pair            608
 max number of PS2 of shell pair           2028
 mem total for path MDJ                  994816
 -------------------------------------------------------
 Smallest overlap matrix eigenvalue = 2.03E-05
 Guess MOs from SCF MO coefficient file

 -----------------------------------------------------------------------
  General SCF calculation program by
  Eric Jon Sundstrom, Paul Horn, Yuezhi Mao, Dmitri Zuev, Alec White,
  David Stuck, Shaama M.S., Shane Yost, Joonho Lee, David Small,
  Daniel Levine, Susi Lehtola, Hugh Burton, Evgeny Epifanovsky
 -----------------------------------------------------------------------
 Hartree-Fock
 using 8 threads for integral computing
 -------------------------------------------------------
 OpenMP Integral computing Module                
 Release: version 2.0, May 2017, Q-Chem Inc. Pleasanton 
 -------------------------------------------------------
 A unrestricted SCF calculation will be
 performed using GDM
 SCF converges when RMS gradient is below 1.0e-08
 ---------------------------------------
  Cycle       Energy        RMS Gradient
 ---------------------------------------
    1    -944.3979278749      4.63e-04   Normal BFGS step
    2    -944.3979305093      9.41e-05   Normal BFGS step
    3    -944.3979306957      1.61e-05   Normal BFGS step
    4    -944.3979307027      3.35e-06   Normal BFGS step
    5    -944.3979307033      1.92e-06   Normal BFGS step
    6    -944.3979307033      6.63e-07   Normal BFGS step
    7    -944.3979307033      2.14e-07   Normal BFGS step
    8    -944.3979307033      4.07e-08   Normal BFGS step
    9    -944.3979307033      9.37e-09  Convergence criterion met
 ---------------------------------------
 SCF time:   CPU 10126.21s  wall 1276.00s 
<S^2> =         -0.000000000
 SCF   energy in the final basis set =     -944.3979307033
 Total energy in the final basis set =     -944.3979307033


 ------------------------------------------------------------------------------

   CCMAN2: suite of methods based on coupled cluster
           and equation of motion theories.

   Components:
   * libvmm-1.3-trunk
     by Evgeny Epifanovsky, Ilya Kaliman.
   * libtensor-2.5-trunk
     by Evgeny Epifanovsky, Michael Wormit, Dmitry Zuev, Sam Manzer, 
        Ilya Kaliman.
   * libcc-2.5-trunk
     by Evgeny Epifanovsky, Arik Landau, Tomasz Kus, Kirill Khistyaev, 
        Dmitry Zuev, Prashant Manohar, Xintian Feng, Anna Krylov, 
        Matthew Goldey, Alec White, Thomas Jagau, Kaushik Nanda, 
        Anastasia Gunina, Alexander Kunitsa, Joonho Lee.

   CCMAN original authors:
   Anna I. Krylov, C. David Sherrill, Steven R. Gwaltney,
   Edward F. C. Byrd (2000)
   Sergey V. Levchenko, Lyudmila V. Slipchenko, Tao Wang,
   Ana-Maria C. Cristian (2003)
   Piotr A. Pieniazek, C. Melania Oana, Evgeny Epifanovsky (2007)
   Prashant Manohar (2009)

 ------------------------------------------------------------------------------


 Calculation will run on 8 cores using libxm for tensor contractions

 ------------------------------------------------------------------------------
Libxm Tensor Library
Copyright (c) 2014-2018 Ilya Kaliman
https://github.com/ilyak/libxm
Reference: https://dx.doi.org/10.1002/jcc.24713
 ------------------------------------------------------------------------------

 
 Alpha MOs, Unrestricted
 -- Occupied --                  
-104.85 -104.85  -10.58  -10.58   -8.04   -8.04   -8.04   -8.04
  1 A     2 A     3 A     4 A     5 A     6 A     7 A     8 A                  
 -8.042  -8.042  -7.716  -1.148  -1.106  -0.717  -0.604  -0.576
  9 A    10 A    11 A    12 A    13 A    14 A    15 A    16 A                  
 -0.522  -0.473  -0.469  -0.463
 17 A    18 A    19 A    20 A                                                  
 -- Virtual --                   
  0.034   0.039   0.043   0.043   0.070   0.075   0.090   0.104
 21 A    22 A    23 A    24 A    25 A    26 A    27 A    28 A                  
  0.111   0.121   0.131   0.136   0.144   0.144   0.150   0.170
 29 A    30 A    31 A    32 A    33 A    34 A    35 A    36 A                  
  0.181   0.200   0.206   0.243   0.245   0.258   0.266   0.275
 37 A    38 A    39 A    40 A    41 A    42 A    43 A    44 A                  
  0.278   0.282   0.300   0.312   0.322   0.325   0.335   0.360
 45 A    46 A    47 A    48 A    49 A    50 A    51 A    52 A                  
  0.363   0.379   0.384   0.406   0.446   0.455   0.459   0.460
 53 A    54 A    55 A    56 A    57 A    58 A    59 A    60 A                  
  0.483   0.503   0.516   0.533   0.543   0.550   0.552   0.554
 61 A    62 A    63 A    64 A    65 A    66 A    67 A    68 A                  
  0.581   0.583   0.585   0.593   0.598   0.605   0.663   0.706
 69 A    70 A    71 A    72 A    73 A    74 A    75 A    76 A                  
  0.709   0.736   0.745   0.764   0.769   0.771   0.822   0.823
 77 A    78 A    79 A    80 A    81 A    82 A    83 A    84 A                  
  0.823   0.850   0.869   0.885   0.902   0.917   0.922   0.938
 85 A    86 A    87 A    88 A    89 A    90 A    91 A    92 A                  
  0.945   0.950   0.964   0.978   0.978   1.053   1.069   1.074
 93 A    94 A    95 A    96 A    97 A    98 A    99 A   100 A                  
  1.075   1.090   1.095   1.112   1.119   1.143   1.169   1.188
101 A   102 A   103 A   104 A   105 A   106 A   107 A   108 A                  
  1.193   1.211   1.234   1.241   1.301   1.430   1.458   1.482
109 A   110 A   111 A   112 A   113 A   114 A   115 A   116 A                  
  1.503   1.530   1.540   1.558   1.568   1.577   1.578   1.584
117 A   118 A   119 A   120 A   121 A   122 A   123 A   124 A                  
  1.634   1.659   1.672   1.675   1.714   1.733   1.750   1.755
125 A   126 A   127 A   128 A   129 A   130 A   131 A   132 A                  
  1.755   1.768   1.788   1.789   1.796   1.828   1.851   1.856
133 A   134 A   135 A   136 A   137 A   138 A   139 A   140 A                  
  1.893   1.913   1.920   1.955   1.967   1.987   1.988   2.016
141 A   142 A   143 A   144 A   145 A   146 A   147 A   148 A                  
  2.047   2.055   2.082   2.110   2.133   2.134   2.150   2.151
149 A   150 A   151 A   152 A   153 A   154 A   155 A   156 A                  
  2.152   2.156   2.173   2.179   2.218   2.231   2.256   2.259
157 A   158 A   159 A   160 A   161 A   162 A   163 A   164 A                  
  2.289   2.303   2.327   2.334   2.338   2.375   2.388   2.401
165 A   166 A   167 A   168 A   169 A   170 A   171 A   172 A                  
  2.404   2.420   2.471   2.472   2.487   2.567   2.607   2.672
173 A   174 A   175 A   176 A   177 A   178 A   179 A   180 A                  
  2.676   2.686   2.750   2.774   2.796   2.862   2.868   2.973
181 A   182 A   183 A   184 A   185 A   186 A   187 A   188 A                  
  2.973   3.024   3.088   3.089   3.152   3.191   3.249   3.261
189 A   190 A   191 A   192 A   193 A   194 A   195 A   196 A                  
  3.392   3.457   3.499   3.718   3.735   3.836   3.864   3.970
197 A   198 A   199 A   200 A   201 A   202 A   203 A   204 A                  
  3.974   4.067   4.077   4.121   4.131   4.134   4.143   4.185
205 A   206 A   207 A   208 A   209 A   210 A   211 A   212 A                  
  4.242   4.251   4.262   4.286   4.289   4.301   4.312   4.367
213 A   214 A   215 A   216 A   217 A   218 A   219 A   220 A                  
  4.381   4.410   4.429   4.437   4.485   4.512   4.657   4.691
221 A   222 A   223 A   224 A   225 A   226 A   227 A   228 A                  
  4.712   4.716   4.716   4.733   4.738   4.739   4.752   4.792
229 A   230 A   231 A   232 A   233 A   234 A   235 A   236 A                  
  4.811   4.843   4.845   4.850   4.857   4.877   4.886   4.922
237 A   238 A   239 A   240 A   241 A   242 A   243 A   244 A                  
  4.941   4.946   4.974   5.007   5.009   5.043   5.058   5.063
245 A   246 A   247 A   248 A   249 A   250 A   251 A   252 A                  
  5.072   5.118   5.145   5.205   5.389   5.397   5.407   5.492
253 A   254 A   255 A   256 A   257 A   258 A   259 A   260 A                  
  5.507   5.605   5.656   5.695   5.755   5.950   5.987   6.106
261 A   262 A   263 A   264 A   265 A   266 A   267 A   268 A                  
  6.221   6.257   6.278   6.414   6.517   6.851   6.886   7.490
269 A   270 A   271 A   272 A   273 A   274 A   275 A   276 A                  
  7.548   7.620   7.666   7.828   7.941   8.131   8.269   8.830
277 A   278 A   279 A   280 A   281 A   282 A   283 A   284 A                  
  9.197   9.281   9.390   9.432   9.623   9.835  10.164  10.513
285 A   286 A   287 A   288 A   289 A   290 A   291 A   292 A                  
 10.584  11.866  12.195  12.209  12.230  12.254  12.420  12.426
293 A   294 A   295 A   296 A   297 A   298 A   299 A   300 A                  
 12.673  12.707  12.788  12.924  12.950  14.319  14.532  18.249
301 A   302 A   303 A   304 A   305 A   306 A   307 A   308 A                  
 18.347  18.486  18.542  19.184  19.198  19.982  20.039  20.149
309 A   310 A   311 A   312 A   313 A   314 A   315 A   316 A                  
 20.347  21.097  21.696  21.701  21.701  21.701  21.749  21.762
317 A   318 A   319 A   320 A   321 A   322 A   323 A   324 A                  
 21.764  21.764  21.775  21.783  21.810  21.828  21.883  21.947
325 A   326 A   327 A   328 A   329 A   330 A   331 A   332 A                  
 25.572  34.311  34.369  37.979  37.993  38.006  38.017  38.134
333 A   334 A   335 A   336 A   337 A   338 A   339 A   340 A                  
 38.162  38.300  38.333  38.508  38.515  45.045  46.037  46.180
341 A   342 A   343 A   344 A   345 A   346 A   347 A   348 A                  
 52.304  52.379  52.491  52.535  53.084  53.103  65.583  65.583
349 A   350 A   351 A   352 A   353 A   354 A   355 A   356 A                  
 65.584  65.584  65.584  65.585  65.585  65.585  65.585  65.586
357 A   358 A   359 A   360 A   361 A   362 A   363 A   364 A                  
 65.586  65.586  65.587  65.587  65.587  65.587  65.588  65.589
365 A   366 A   367 A   368 A   369 A   370 A   371 A   372 A                  
 75.879  75.884  75.886  75.894  75.909  75.922  75.925  76.148
373 A   374 A   375 A   376 A   377 A   378 A   379 A   380 A                  
 76.150  76.151  76.151  76.176  76.182  76.184  76.185  76.188
381 A   382 A   383 A   384 A   385 A   386 A   387 A   388 A                  
 76.192  76.206  76.211  76.232  76.252  84.192  86.246  86.260
[...]
    3    -944.3979115948      3.05e-05   Normal BFGS step
    4    -944.3979116171      1.53e-05   Normal BFGS step
    5    -944.3979116194      3.13e-06   Normal BFGS step
    6    -944.3979116196      9.78e-07   Normal BFGS step
    7    -944.3979116196      3.16e-07   Normal BFGS step
    8    -944.3979116196      6.20e-08   Normal BFGS step
    9    -944.3979116196      2.37e-08   Normal BFGS step
   10    -944.3979116196      4.25e-09  Convergence criterion met
 ---------------------------------------
 SCF time:   CPU 11055.46s  wall 1404.00s 
<S^2> =         -0.000000000
 SCF   energy in the final basis set =     -944.3979116196
 Total energy in the final basis set =     -944.3979116196


 ------------------------------------------------------------------------------

   CCMAN2: suite of methods based on coupled cluster
           and equation of motion theories.

   Components:
   * libvmm-1.3-trunk
     by Evgeny Epifanovsky, Ilya Kaliman.
   * libtensor-2.5-trunk
     by Evgeny Epifanovsky, Michael Wormit, Dmitry Zuev, Sam Manzer, 
        Ilya Kaliman.
   * libcc-2.5-trunk
     by Evgeny Epifanovsky, Arik Landau, Tomasz Kus, Kirill Khistyaev, 
        Dmitry Zuev, Prashant Manohar, Xintian Feng, Anna Krylov, 
        Matthew Goldey, Alec White, Thomas Jagau, Kaushik Nanda, 
        Anastasia Gunina, Alexander Kunitsa, Joonho Lee.

   CCMAN original authors:
   Anna I. Krylov, C. David Sherrill, Steven R. Gwaltney,
   Edward F. C. Byrd (2000)
   Sergey V. Levchenko, Lyudmila V. Slipchenko, Tao Wang,
   Ana-Maria C. Cristian (2003)
   Piotr A. Pieniazek, C. Melania Oana, Evgeny Epifanovsky (2007)
   Prashant Manohar (2009)

 ------------------------------------------------------------------------------


 Calculation will run on 8 cores using libxm for tensor contractions

 ------------------------------------------------------------------------------
Libxm Tensor Library
Copyright (c) 2014-2018 Ilya Kaliman
https://github.com/ilyak/libxm
Reference: https://dx.doi.org/10.1002/jcc.24713
 ------------------------------------------------------------------------------

 
 Alpha MOs, Unrestricted
 -- Occupied --                  
-104.85 -104.85  -10.58  -10.58   -8.04   -8.04   -8.04   -8.04
  1 A     2 A     3 A     4 A     5 A     6 A     7 A     8 A                  
 -8.042  -8.042  -7.715  -1.148  -1.106  -0.716  -0.603  -0.576
  9 A    10 A    11 A    12 A    13 A    14 A    15 A    16 A                  
 -0.522  -0.473  -0.468  -0.463
 17 A    18 A    19 A    20 A                                                  
 -- Virtual --                   
  0.036   0.040   0.043   0.043   0.069   0.078   0.091   0.103
 21 A    22 A    23 A    24 A    25 A    26 A    27 A    28 A                  
  0.109   0.124   0.129   0.138   0.143   0.144   0.152   0.171
 29 A    30 A    31 A    32 A    33 A    34 A    35 A    36 A                  
  0.181   0.201   0.207   0.244   0.244   0.259   0.267   0.276
 37 A    38 A    39 A    40 A    41 A    42 A    43 A    44 A                  
  0.279   0.283   0.300   0.312   0.322   0.326   0.335   0.360
 45 A    46 A    47 A    48 A    49 A    50 A    51 A    52 A                  
  0.364   0.380   0.385   0.405   0.447   0.455   0.460   0.461
 53 A    54 A    55 A    56 A    57 A    58 A    59 A    60 A                  
  0.484   0.502   0.517   0.533   0.542   0.550   0.552   0.555
 61 A    62 A    63 A    64 A    65 A    66 A    67 A    68 A                  
  0.580   0.584   0.585   0.593   0.598   0.605   0.663   0.706
 69 A    70 A    71 A    72 A    73 A    74 A    75 A    76 A                  
  0.708   0.737   0.746   0.764   0.770   0.771   0.822   0.823
 77 A    78 A    79 A    80 A    81 A    82 A    83 A    84 A                  
  0.823   0.850   0.869   0.886   0.902   0.918   0.922   0.939
 85 A    86 A    87 A    88 A    89 A    90 A    91 A    92 A                  
  0.945   0.950   0.964   0.978   0.979   1.053   1.070   1.074
 93 A    94 A    95 A    96 A    97 A    98 A    99 A   100 A                  
  1.075   1.090   1.095   1.112   1.119   1.143   1.170   1.188
101 A   102 A   103 A   104 A   105 A   106 A   107 A   108 A                  
  1.193   1.211   1.235   1.241   1.302   1.431   1.458   1.482
109 A   110 A   111 A   112 A   113 A   114 A   115 A   116 A                  
  1.503   1.530   1.541   1.559   1.568   1.578   1.578   1.584
117 A   118 A   119 A   120 A   121 A   122 A   123 A   124 A                  
  1.635   1.659   1.672   1.675   1.714   1.733   1.750   1.755
125 A   126 A   127 A   128 A   129 A   130 A   131 A   132 A                  
  1.755   1.770   1.788   1.789   1.797   1.828   1.851   1.856
133 A   134 A   135 A   136 A   137 A   138 A   139 A   140 A                  
  1.894   1.913   1.920   1.955   1.968   1.987   1.989   2.017
141 A   142 A   143 A   144 A   145 A   146 A   147 A   148 A                  
  2.048   2.055   2.082   2.111   2.133   2.134   2.151   2.151
149 A   150 A   151 A   152 A   153 A   154 A   155 A   156 A                  
  2.152   2.157   2.173   2.179   2.219   2.232   2.257   2.259
157 A   158 A   159 A   160 A   161 A   162 A   163 A   164 A                  
  2.290   2.304   2.327   2.334   2.339   2.375   2.388   2.401
165 A   166 A   167 A   168 A   169 A   170 A   171 A   172 A                  
  2.405   2.420   2.471   2.472   2.487   2.567   2.608   2.673
173 A   174 A   175 A   176 A   177 A   178 A   179 A   180 A                  
  2.676   2.686   2.750   2.775   2.797   2.862   2.868   2.973
181 A   182 A   183 A   184 A   185 A   186 A   187 A   188 A                  
  2.973   3.024   3.088   3.090   3.153   3.191   3.249   3.262
189 A   190 A   191 A   192 A   193 A   194 A   195 A   196 A                  
  3.393   3.457   3.499   3.719   3.736   3.836   3.864   3.971
197 A   198 A   199 A   200 A   201 A   202 A   203 A   204 A                  
  3.974   4.067   4.077   4.122   4.131   4.135   4.143   4.185
205 A   206 A   207 A   208 A   209 A   210 A   211 A   212 A                  
  4.242   4.251   4.263   4.286   4.289   4.302   4.312   4.367
213 A   214 A   215 A   216 A   217 A   218 A   219 A   220 A                  
  4.381   4.410   4.429   4.437   4.486   4.512   4.657   4.691
221 A   222 A   223 A   224 A   225 A   226 A   227 A   228 A                  
  4.712   4.716   4.716   4.733   4.738   4.739   4.753   4.792
229 A   230 A   231 A   232 A   233 A   234 A   235 A   236 A                  
  4.811   4.843   4.845   4.850   4.857   4.877   4.886   4.922
237 A   238 A   239 A   240 A   241 A   242 A   243 A   244 A                  
  4.941   4.946   4.974   5.007   5.009   5.043   5.058   5.063
245 A   246 A   247 A   248 A   249 A   250 A   251 A   252 A                  
  5.072   5.118   5.145   5.205   5.389   5.397   5.408   5.492
253 A   254 A   255 A   256 A   257 A   258 A   259 A   260 A                  
  5.507   5.605   5.656   5.695   5.756   5.950   5.987   6.106
261 A   262 A   263 A   264 A   265 A   266 A   267 A   268 A                  
  6.222   6.257   6.278   6.414   6.517   6.852   6.887   7.490
269 A   270 A   271 A   272 A   273 A   274 A   275 A   276 A                  
  7.549   7.620   7.667   7.829   7.942   8.132   8.270   8.830
277 A   278 A   279 A   280 A   281 A   282 A   283 A   284 A                  
  9.198   9.281   9.391   9.433   9.623   9.835  10.165  10.513
285 A   286 A   287 A   288 A   289 A   290 A   291 A   292 A                  
 10.584  11.867  12.195  12.209  12.230  12.254  12.420  12.426
293 A   294 A   295 A   296 A   297 A   298 A   299 A   300 A                  
 12.673  12.707  12.788  12.924  12.950  14.319  14.532  18.249
301 A   302 A   303 A   304 A   305 A   306 A   307 A   308 A                  
 18.347  18.487  18.543  19.184  19.198  19.982  20.039  20.149
309 A   310 A   311 A   312 A   313 A   314 A   315 A   316 A                  
 20.347  21.098  21.696  21.701  21.701  21.702  21.749  21.762
317 A   318 A   319 A   320 A   321 A   322 A   323 A   324 A                  
 21.764  21.764  21.775  21.783  21.810  21.828  21.883  21.947
325 A   326 A   327 A   328 A   329 A   330 A   331 A   332 A                  
 25.572  34.312  34.369  37.980  37.993  38.006  38.017  38.135
333 A   334 A   335 A   336 A   337 A   338 A   339 A   340 A                  
 38.162  38.300  38.333  38.508  38.516  45.045  46.037  46.180
341 A   342 A   343 A   344 A   345 A   346 A   347 A   348 A                  
 52.304  52.380  52.492  52.535  53.084  53.103  65.583  65.583
349 A   350 A   351 A   352 A   353 A   354 A   355 A   356 A                  
 65.584  65.584  65.584  65.585  65.585  65.585  65.586  65.586
357 A   358 A   359 A   360 A   361 A   362 A   363 A   364 A                  
 65.586  65.586  65.587  65.587  65.587  65.587  65.588  65.589
365 A   366 A   367 A   368 A   369 A   370 A   371 A   372 A                  
 75.880  75.884  75.886  75.894  75.910  75.923  75.925  76.148
373 A   374 A   375 A   376 A   377 A   378 A   379 A   380 A                  
 76.150  76.151  76.151  76.176  76.183  76.184  76.185  76.189
381 A   382 A   383 A   384 A   385 A   386 A   387 A   388 A                  
 76.192  76.206  76.211  76.232  76.252  84.193  86.246  86.261
389 A   390 A   391 A   392 A   393 A   394 A   395 A   396 A                  
 86.363  86.433  86.854  98.743  98.819 111.151 111.161 111.170
397 A   398 A   399 A   400 A   401 A   402 A   403 A   404 A                  
111.177 111.263 111.284 111.383 111.405 111.532 111.532 152.325
405 A   406 A   407 A   408 A   409 A   410 A   411 A   412 A                  
153.119 153.237 167.229 167.274 167.341 167.366 167.697 167.710
413 A   414 A   415 A   416 A   417 A   418 A   419 A   420 A                  
349.634 458.391 458.731
421 A   422 A   423 A                                                          
 
 Beta MOs, Unrestricted
 -- Occupied --                  
-104.85 -104.85  -10.58  -10.58   -8.04   -8.04   -8.04   -8.04
  1 A     2 A     3 A     4 A     5 A     6 A     7 A     8 A                  
 -8.042  -8.042  -7.715  -1.148  -1.106  -0.716  -0.603  -0.576
  9 A    10 A    11 A    12 A    13 A    14 A    15 A    16 A                  
 -0.522  -0.473  -0.468  -0.463
 17 A    18 A    19 A    20 A                                                  
 -- Virtual --                   
  0.036   0.040   0.043   0.043   0.069   0.078   0.091   0.103
 21 A    22 A    23 A    24 A    25 A    26 A    27 A    28 A                  
  0.109   0.124   0.129   0.138   0.143   0.144   0.152   0.171
 29 A    30 A    31 A    32 A    33 A    34 A    35 A    36 A                  
  0.181   0.201   0.207   0.244   0.244   0.259   0.267   0.276
 37 A    38 A    39 A    40 A    41 A    42 A    43 A    44 A                  
  0.279   0.283   0.300   0.312   0.322   0.326   0.335   0.360
 45 A    46 A    47 A    48 A    49 A    50 A    51 A    52 A                  
  0.364   0.380   0.385   0.405   0.447   0.455   0.460   0.461
 53 A    54 A    55 A    56 A    57 A    58 A    59 A    60 A                  
  0.484   0.502   0.517   0.533   0.542   0.550   0.552   0.555
 61 A    62 A    63 A    64 A    65 A    66 A    67 A    68 A                  
  0.580   0.584   0.585   0.593   0.598   0.605   0.663   0.706
 69 A    70 A    71 A    72 A    73 A    74 A    75 A    76 A                  
  0.708   0.737   0.746   0.764   0.770   0.771   0.822   0.823
 77 A    78 A    79 A    80 A    81 A    82 A    83 A    84 A                  
  0.823   0.850   0.869   0.886   0.902   0.918   0.922   0.939
 85 A    86 A    87 A    88 A    89 A    90 A    91 A    92 A                  
  0.945   0.950   0.964   0.978   0.979   1.053   1.070   1.074
 93 A    94 A    95 A    96 A    97 A    98 A    99 A   100 A                  
  1.075   1.090   1.095   1.112   1.119   1.143   1.170   1.188
101 A   102 A   103 A   104 A   105 A   106 A   107 A   108 A                  
  1.193   1.211   1.235   1.241   1.302   1.431   1.458   1.482
109 A   110 A   111 A   112 A   113 A   114 A   115 A   116 A                  
  1.503   1.530   1.541   1.559   1.568   1.578   1.578   1.584
117 A   118 A   119 A   120 A   121 A   122 A   123 A   124 A                  
  1.635   1.659   1.672   1.675   1.714   1.733   1.750   1.755
125 A   126 A   127 A   128 A   129 A   130 A   131 A   132 A                  
  1.755   1.770   1.788   1.789   1.797   1.828   1.851   1.856
133 A   134 A   135 A   136 A   137 A   138 A   139 A   140 A                  
  1.894   1.913   1.920   1.955   1.968   1.987   1.989   2.017
141 A   142 A   143 A   144 A   145 A   146 A   147 A   148 A                  
  2.048   2.055   2.082   2.111   2.133   2.134   2.151   2.151
149 A   150 A   151 A   152 A   153 A   154 A   155 A   156 A                  
  2.152   2.157   2.173   2.179   2.219   2.232   2.257   2.259
157 A   158 A   159 A   160 A   161 A   162 A   163 A   164 A                  
  2.290   2.304   2.327   2.334   2.339   2.375   2.388   2.401
165 A   166 A   167 A   168 A   169 A   170 A   171 A   172 A                  
  2.405   2.420   2.471   2.472   2.487   2.567   2.608   2.673
173 A   174 A   175 A   176 A   177 A   178 A   179 A   180 A                  
  2.676   2.686   2.750   2.775   2.797   2.862   2.868   2.973
181 A   182 A   183 A   184 A   185 A   186 A   187 A   188 A                  
  2.973   3.024   3.088   3.090   3.153   3.191   3.249   3.262
189 A   190 A   191 A   192 A   193 A   194 A   195 A   196 A                  
  3.393   3.457   3.499   3.719   3.736   3.836   3.864   3.971
197 A   198 A   199 A   200 A   201 A   202 A   203 A   204 A                  
  3.974   4.067   4.077   4.122   4.131   4.135   4.143   4.185
205 A   206 A   207 A   208 A   209 A   210 A   211 A   212 A                  
  4.242   4.251   4.263   4.286   4.289   4.302   4.312   4.367
213 A   214 A   215 A   216 A   217 A   218 A   219 A   220 A                  
  4.381   4.410   4.429   4.437   4.486   4.512   4.657   4.691
221 A   222 A   223 A   224 A   225 A   226 A   227 A   228 A                  
  4.712   4.716   4.716   4.733   4.738   4.739   4.753   4.792
229 A   230 A   231 A   232 A   233 A   234 A   235 A   236 A                  
  4.811   4.843   4.845   4.850   4.857   4.877   4.886   4.922
237 A   238 A   239 A   240 A   241 A   242 A   243 A   244 A                  
  4.941   4.946   4.974   5.007   5.009   5.043   5.058   5.063
245 A   246 A   247 A   248 A   249 A   250 A   251 A   252 A                  
  5.072   5.118   5.145   5.205   5.389   5.397   5.408   5.492
253 A   254 A   255 A   256 A   257 A   258 A   259 A   260 A                  
  5.507   5.605   5.656   5.695   5.756   5.950   5.987   6.106
261 A   262 A   263 A   264 A   265 A   266 A   267 A   268 A                  
  6.222   6.257   6.278   6.414   6.517   6.852   6.887   7.490
269 A   270 A   271 A   272 A   273 A   274 A   275 A   276 A                  
  7.549   7.620   7.667   7.829   7.942   8.132   8.270   8.830
277 A   278 A   279 A   280 A   281 A   282 A   283 A   284 A                  
  9.198   9.281   9.391   9.433   9.623   9.835  10.165  10.513
285 A   286 A   287 A   288 A   289 A   290 A   291 A   292 A                  
 10.584  11.867  12.195  12.209  12.230  12.254  12.420  12.426
293 A   294 A   295 A   296 A   297 A   298 A   299 A   300 A                  
 12.673  12.707  12.788  12.924  12.950  14.319  14.532  18.249
301 A   302 A   303 A   304 A   305 A   306 A   307 A   308 A                  
 18.347  18.487  18.543  19.184  19.198  19.982  20.039  20.149
309 A   310 A   311 A   312 A   313 A   314 A   315 A   316 A                  
 20.347  21.098  21.696  21.701  21.701  21.702  21.749  21.762
317 A   318 A   319 A   320 A   321 A   322 A   323 A   324 A                  
 21.764  21.764  21.775  21.783  21.810  21.828  21.883  21.947
325 A   326 A   327 A   328 A   329 A   330 A   331 A   332 A                  
 25.572  34.312  34.369  37.980  37.993  38.006  38.017  38.135
333 A   334 A   335 A   336 A   337 A   338 A   339 A   340 A                  
 38.162  38.300  38.333  38.508  38.516  45.045  46.037  46.180
341 A   342 A   343 A   344 A   345 A   346 A   347 A   348 A                  
 52.304  52.380  52.492  52.535  53.084  53.103  65.583  65.583
349 A   350 A   351 A   352 A   353 A   354 A   355 A   356 A                  
 65.584  65.584  65.584  65.585  65.585  65.585  65.586  65.586
357 A   358 A   359 A   360 A   361 A   362 A   363 A   364 A                  
 65.586  65.586  65.587  65.587  65.587  65.587  65.588  65.589
365 A   366 A   367 A   368 A   369 A   370 A   371 A   372 A                  
 75.880  75.884  75.886  75.894  75.910  75.923  75.925  76.148
373 A   374 A   375 A   376 A   377 A   378 A   379 A   380 A                  
 76.150  76.151  76.151  76.176  76.183  76.184  76.185  76.189
381 A   382 A   383 A   384 A   385 A   386 A   387 A   388 A                  
 76.192  76.206  76.211  76.232  76.252  84.193  86.246  86.261
389 A   390 A   391 A   392 A   393 A   394 A   395 A   396 A                  
 86.363  86.433  86.854  98.743  98.819 111.151 111.161 111.170
397 A   398 A   399 A   400 A   401 A   402 A   403 A   404 A                  
111.177 111.263 111.284 111.383 111.405 111.532 111.532 152.325
405 A   406 A   407 A   408 A   409 A   410 A   411 A   412 A                  
153.119 153.237 167.229 167.274 167.341 167.366 167.697 167.710
413 A   414 A   415 A   416 A   417 A   418 A   419 A   420 A                  
349.634 458.391 458.731
421 A   422 A   423 A                                                          

 Occupation and symmetry of molecular orbitals

 Point group: C1 (1 irreducible representation).

                           A     All 
 -------------------------------------
 All molecular orbitals:
  - Alpha                  423   423 
  - Beta                   423   423 
 -------------------------------------
 Alpha orbitals:
  - Frozen occupied        0     0   
  - Active occupied        20    20  
  - Active virtual         403   403 
  - Frozen virtual         0     0   
 -------------------------------------
 Beta orbitals:
  - Frozen occupied        0     0   
  - Active occupied        20    20  
  - Active virtual         403   403 
  - Frozen virtual         0     0   
 -------------------------------------

 Import integrals:   CPU 0.00 s  wall 0.00 s

 Import integrals:   CPU 46895.87 s  wall 10024.36 s

 MP2 amplitudes:   CPU 111.50 s  wall 83.98 s

Running a double precision version
           CCSD T amplitudes will be solved using DIIS.

           Start     Size      MaxIter   EConv     TConv     
           3         7         100       1.00e-06  1.00e-04  
 ------------------------------------------------------------------------------
           Energy (a.u.)   Ediff      Tdiff       Comment
 ------------------------------------------------------------------------------
          -945.76681548                           
     1    -945.77905509   1.22e-02   7.82e-01     Step took 51.35.
     2    -945.79329783   1.42e-02   8.07e-02     
     3    -945.79395296   6.55e-04   2.55e-02     
     4    -945.79490857   9.56e-04   7.99e-03     Switched to DIIS steps.
     5    -945.79519446   2.86e-04   5.07e-03     
     6    -945.79520214   7.68e-06   1.31e-03     
     7    -945.79520522   3.08e-06   5.91e-04     
     8    -945.79520682   1.60e-06   1.43e-04     
     9    -945.79520724   4.20e-07   4.13e-05     
 ------------------------------------------------------------------------------
          -945.79520724                           CCSD T converged.

End of double precision

----------------------------------------
libpt (c) 2016-2018 Ilya Kaliman
Fast Coupled Cluster Triples Corrections
https://github.com/ilyak/libpt
----------------------------------------

 Starting (T) calculation...
 Using double precision libpt code
