Q-Chem Developer Version!
                  Welcome to Q-Chem
     A Quantum Leap Into The Future Of Chemistry


 Q-Chem 5.1, Q-Chem, Inc., Pleasanton, CA (2018)

 Yihan Shao,  Zhengting Gan,  E. Epifanovsky,  A. T. B. Gilbert,  M. Wormit,  
 J. Kussmann,  A. W. Lange,  A. Behn,  Jia Deng,  Xintian Feng,  D. Ghosh,  
 M. Goldey,  P. R. Horn,  L. D. Jacobson,  I. Kaliman,  T. Kus,  A. Landau,  
 Jie Liu,  E. I. Proynov,  R. M. Richard,  R. P. Steele,  E. J. Sundstrom,  
 H. L. Woodcock III,  P. M. Zimmerman,  D. Zuev,  B. Albrecht,  E. Alguire,  
 S. A. Baeppler,  D. Barton,  Z. Benda,  Y. A. Bernard,  E. J. Berquist,  
 K. B. Bravaya,  H. Burton,  D. Casanova,  Chun-Min Chang,  Yunqing Chen,  
 A. Chien,  K. D. Closser,  M. P. Coons,  S. Coriani,  S. Dasgupta,  
 A. L. Dempwolff,  M. Diedenhofen,  Hainam Do,  R. G. Edgar,  Po-Tung Fang,  
 S. Faraji,  S. Fatehi,  Qingguo Feng,  K. D. Fenk,  J. Fosso-Tande,  
 Qinghui Ge,  A. Ghysels,  G. Gidofalvi,  J. Gomes,  J. Gonthier,  A. Gunina,  
 D. Hait,  M. W. D. Hanson-Heine,  P. H. P. Harbach,  A. W. Hauser,  
 J. E. Herr,  E. G. Hohenstein,  Z. C. Holden,  Kerwin Hui,  B. C. Huynh,  
 T.-C. Jagau,  Hyunjun Ji,  B. Kaduk,  K. Khistyaev,  Jaehoon Kim,  
 P. Klunzinger,  K. Koh,  D. Kosenkov,  L. Koulias,  T. Kowalczyk,  
 C. M. Krauter,  A. Kunitsa,  Ka Un Lao,  A. Laurent,  K. V. Lawler,  
 Joonho Lee,  D. Lefrancois,  S. Lehtola,  D. S. Levine,  Yi-Pei Li,  
 You-Sheng Lin,  Fenglai Liu,  E. Livshits,  A. Luenser,  P. Manohar,  
 E. Mansoor,  S. F. Manzer,  Shan-Ping Mao,  Yuezhi Mao,  N. Mardirossian,  
 A. V. Marenich,  T. Markovich,  L. A. Martinez-Martinez,  S. A. Maurer,  
 N. J. Mayhall,  S. C. McKenzie,  J.-M. Mewes,  A. F. Morrison,  
 J. W. Mullinax,  K. Nanda,  T. S. Nguyen-Beck,  R. Olivares-Amaya,  
 J. A. Parkhill,  T. M. Perrine,  F. Plasser,  P. Pokhilko,  S. Prager,  
 A. Prociuk,  E. Ramos,  D. R. Rehn,  F. Rob,  M. Schneider,  N. Sergueev,  
 S. M. Sharada,  S. Sharma,  D. W. Small,  T. Stauch,  T. Stein,  
 Yu-Chuan Su,  A. J. W. Thom,  A. Tkatchenko,  T. Tsuchimochi,  N. M. Tubman,  
 L. Vogt,  M. L. Vidal,  O. Vydrov,  M. A. Watson,  J. Wenzel,  
 M. de Wergifosse,  T. A. Wesolowski,  A. White,  J. Witte,  A. Yamada,  
 Jun Yang,  K. Yao,  S. Yeganeh,  S. R. Yost,  Zhi-Qiang You,  A. Zech,  
 Igor Ying Zhang,  Xing Zhang,  Yan Zhao,  Ying Zhu,  B. R. Brooks,  
 G. K. L. Chan,  C. J. Cramer,  M. S. Gordon,  W. J. Hehre,  A. Klamt,  
 M. W. Schmidt,  C. D. Sherrill,  D. G. Truhlar,  A. Aspuru-Guzik,  R. Baer,  
 A. T. Bell,  N. A. Besley,  Jeng-Da Chai,  A. E. DePrince, III,  
 R. A. DiStasio Jr.,  A. Dreuw,  B. D. Dunietz,  T. R. Furlani,  
 Chao-Ping Hsu,  Yousung Jung,  Jing Kong,  D. S. Lambrecht,  WanZhen Liang,  
 C. Ochsenfeld,  V. A. Rassolov,  L. V. Slipchenko,  J. E. Subotnik,  
 T. Van Voorhis,  J. M. Herbert,  A. I. Krylov,  P. M. W. Gill,  M. Head-Gordon

 Contributors to earlier versions of Q-Chem not listed above: 
 R. D. Adamson,  B. Austin,  J. Baker,  G. J. O. Beran,  K. Brandhorst,  
 S. T. Brown,  E. F. C. Byrd,  A. K. Chakraborty,  C.-L. Cheng,  
 Siu Hung Chien,  D. M. Chipman,  D. L. Crittenden,  H. Dachsel,  
 R. J. Doerksen,  A. D. Dutoi,  L. Fusti-Molnar,  W. A. Goddard III,  
 A. Golubeva-Zadorozhnaya,  S. R. Gwaltney,  G. Hawkins,  A. Heyden,  
 S. Hirata,  G. Kedziora,  F. J. Keil,  C. Kelley,  Jihan Kim,  R. A. King,  
 R. Z. Khaliullin,  P. P. Korambath,  W. Kurlancheek,  A. M. Lee,  M. S. Lee,  
 S. V. Levchenko,  Ching Yeh Lin,  D. Liotard,  R. C. Lochan,  I. Lotan,  
 P. E. Maslen,  N. Nair,  D. P. O'Neill,  D. Neuhauser,  E. Neuscamman,  
 C. M. Oana,  R. Olson,  B. Peters,  R. Peverati,  P. A. Pieniazek,  
 Y. M. Rhee,  J. Ritchie,  M. A. Rohrdanz,  E. Rosta,  N. J. Russ,  
 H. F. Schaefer III,  N. E. Schultz,  N. Shenvi,  A. C. Simmonett,  A. Sodt,  
 D. Stuck,  K. S. Thanthiriwatte,  V. Vanovschi,  Tao Wang,  A. Warshel,  
 C. F. Williams,  Q. Wu,  X. Xu,  W. Zhang

 Please cite Q-Chem as follows:
 Y. Shao et al., Mol. Phys. 113, 184-215 (2015)
 DOI: 10.1080/00268976.2014.952696

 Q-Chem 5.1.1 for Intel X86 EM64T Linux

 Parts of Q-Chem use Armadillo 8.300.2 (Tropical Shenanigans).
 http://arma.sourceforge.net/

 Q-Chem begins on Fri Nov 13 04:03:43 2020  

Host: n0068.mhg0
0

     Scratch files written to /local/scratch/users/yhljason/CF2_hf_aug-cc-pcV5Z.inp20201113040341//
Input Ideriv = 2
Curr. Ideriv = -1
Max.  Ideriv = 2

Checking the input file for inconsistencies... 	...done.

--------------------------------------------------------------
User input:
--------------------------------------------------------------
$molecule
0 1
C1      0.0000  0.0000  0.5932
F2      0.0000  1.0282  -0.1977
F3      0.0000  -1.0282 -0.1977
$end

$rem
jobtype sp
method hf
xc_grid 000099000590
basis aug-cc-pcV5Z
max_scf_cycles 200
thresh 14
scf_convergence 8
scf_algorithm gdm
symmetry false
sym_ignore true
unrestricted True
gen_scfman true
internal_stability_iter 15
internal_stability_davidson_iter 200
mem_total 64000
mem_static 1500
n_frozen_core 0
$end



--------------------------------------------------------------
 ----------------------------------------------------------------
             Standard Nuclear Orientation (Angstroms)
    I     Atom           X                Y                Z
 ----------------------------------------------------------------
    1      C       0.0000000000     0.0000000000     0.5932000000
    2      F       0.0000000000     1.0282000000    -0.1977000000
    3      F       0.0000000000    -1.0282000000    -0.1977000000
 ----------------------------------------------------------------
 Nuclear Repulsion Energy =    64.9013148907 hartrees
 There are       12 alpha and       12 beta electrons
 Requested basis set is aug-cc-pCV5Z
 There are 123 shells and 543 basis functions

 Total QAlloc Memory Limit  64000 MB
 Mega-Array Size      1467 MB
 MEM_STATIC part      1500 MB

                       Distance Matrix (Angstroms)
             C (  1)   F (  2)
   F (  2)  1.297196
   F (  3)  1.297196  2.056400
 
 A cutoff of  1.0D-14 yielded   6767 shell pairs
 There are    136851 function pairs (    267163 Cartesian)
 
 -------------------------------------------------------
 OpenMP Integral Computing Module                       
 Release: version 1.0, May 2013, Q-Chem Inc. Pittsburgh 
 -------------------------------------------------------
 Integral Job Info:
 Integral job number is                      11
 Integral operator is                         1
 short-range coefficients                     0
 long-range coefficients              100000000
 Omega coefficients                           0
 if combine SR and LR in K                    0
 Integral screening is                        0
 Integral computing path is                   2
 max size of driver memory is           6400000
 size of driver memory is               5498286
 size of scratch memory is             29551430
 max col of scratch BK array             194481
 max len of scratch array in speh3         5572
 max len of scratch index in speh4           72
 max int batch size is                      520
 min int batch size is                       52
 fixed nKL is                                30
 max L of basis functions is                  5
 order of int derivative is                   0
 number of shells is                        123
 number of basis is                         753
 number of cartesian basis is               753
 number of contracted shell pairs          6767
 number of primitive shell pairs          13243
 maxK2 (contraction) of shell pair          100
 max number of K2 of shell pair               1
 max number of CS2 of shell pair            655
 max number of PS2 of shell pair           1100
 mem total for path MDJ                 1401332
 -------------------------------------------------------
 Smallest overlap matrix eigenvalue = 1.58E-05

 Scale SEOQF with 1.000000e-01/1.000000e-01/1.000000e-01

 Standard Electronic Orientation quadrupole field applied
 Nucleus-field energy     =     0.0000000011 hartrees
 Guess from superposition of atomic densities
 Warning:  Energy on first SCF cycle will be non-variational
 SAD guess density has 24.000000 electrons

 -----------------------------------------------------------------------
  General SCF calculation program by
  Eric Jon Sundstrom, Paul Horn, Yuezhi Mao, Dmitri Zuev, Alec White,
  David Stuck, Shaama M.S., Shane Yost, Joonho Lee, David Small,
  Daniel Levine, Susi Lehtola, Hugh Burton, Evgeny Epifanovsky
 -----------------------------------------------------------------------
Running Object-Oriented UHF
performing a single roothaan step with Fock from read density so that orbitals are available to all algorithms
 LTot/LBra/LKet=          18           9           9
 LTot/LBra/LKet=          18           9           9
 LTot/LBra/LKet=          18           9           9

 Q-Chem warning:

 in GenH1, ket side, handled with new code


 Q-Chem warning:

 in GenH1, ket side, handled with new code


 Q-Chem warning:

 in GenH1, ket side, handled with new code

 LTot/LBra/LBra=          18           9           9

 Q-Chem warning:

 in GenH1, bra side, handled with new code

energy of the guess density (C=0) -237.050544668142
We will preform up to 15 macro iterations over saddle points until a stable solution is found
Energy prior to optimization (guess energy) = -236.711384794756
Begin Timing: Total SCF Calculation
Begin Timing: SCF Single Stationary Point Calculation
begin iterations for algorithm: GDM          
the SCF tolerance is set to 1.00e-08
    1    -236.7113847948      8.36e-02     00000  Descent step
    2    -236.7723658227      3.10e-02     00000  Normal BFGS step
    3    -236.7787760580      1.03e-02     00000  Normal BFGS step
    4    -236.7795882342      3.19e-03     00000  Normal BFGS step
    5    -236.7796522787      5.87e-04     00000  Normal BFGS step
    6    -236.7796563963      2.00e-04     00000  Normal BFGS step
    7    -236.7796567375      5.02e-05     00000  Normal BFGS step
    8    -236.7796567576      9.31e-06     00000  Normal BFGS step
    9    -236.7796567590      1.59e-06     00000  Normal BFGS step
   10    -236.7796567591      3.87e-07     00000  Normal BFGS step
   11    -236.7796567591      6.53e-08     00000  Normal BFGS step
   12    -236.7796567591      2.73e-08     00000  Normal BFGS step
   13    -236.7796567591      6.32e-09     00000 Convergence criterion met
Timing for Single Stationary Point: 12188.00s (wall), 97490.82s (cpu)
Begin Timing: Stability
===================================================
Beginning Test for Internal Stability
===================================================
generating davidson guess vectors based on koopmans excitations
    1      5.03e+00     00000 Davidson Iteration
    2      5.25e+00     00000 Davidson Iteration
    3      3.14e-01     00000 Davidson Iteration
    4      1.70e-01     00000 Davidson Iteration
    5      2.02e-02     00000 Davidson Iteration
    6      7.07e-03     00000 Davidson Iteration
    7      2.72e-03     00000 Davidson Iteration
    8      7.81e-04     00000 Davidson Iteration
    9      1.94e-04     00000 Davidson Iteration
   10      1.98e-05     00000 Davidson Converged
converged_eigenvalues
  -0.0314
   0.4462
Threshold for negative eigenvalues: -1.0e-05
solution was a saddle point (unstable)
displacing from saddle point as requested
performing a line search along the lowest hessian eigenvector after a small displacement (1E-3) to give a non-zero gradient along this direction 
===================================================
End Test for Internal Stability
===================================================
Timing for Internal Stability: 19568.00s (wall), 156314.76s (cpu)
completed scf stability macro iteration 1
beginning next scf after displacing from saddle point
Begin Timing: SCF Single Stationary Point Calculation
begin iterations for algorithm: GDM          
the SCF tolerance is set to 1.00e-08
    1    -236.7801797519      1.57e-03     00000  Normal BFGS step
    2    -236.7802335814      7.94e-04     00000  Normal BFGS step
    3    -236.7802409443      4.17e-04     00000  Normal BFGS step
    4    -236.7802418121      3.91e-04     00000  Normal BFGS step
    5    -236.7802431165      3.25e-04     00000  Normal BFGS step
    6    -236.7802447610      2.27e-04     00000  Normal BFGS step
    7    -236.7802467434      1.96e-04     00000  Normal BFGS step
    8    -236.7802475771      8.18e-05     00000  Normal BFGS step
    9    -236.7802477352      1.74e-05     00000  Normal BFGS step
   10    -236.7802477427      5.82e-06     00000  Normal BFGS step
   11    -236.7802477433      2.14e-06     00000  Normal BFGS step
   12    -236.7802477434      6.55e-07     00000  Normal BFGS step
   13    -236.7802477434      2.60e-07     00000  Normal BFGS step
   14    -236.7802477434      9.12e-08     00000  Normal BFGS step
   15    -236.7802477434      1.91e-08     00000  Normal BFGS step
   16    -236.7802477434      6.16e-09     00000 Convergence criterion met
Timing for Single Stationary Point: 14358.00s (wall), 114847.62s (cpu)
Begin Timing: Stability
===================================================
Beginning Test for Internal Stability
===================================================
generating davidson guess vectors based on koopmans excitations
    1      5.03e+00     00000 Davidson Iteration
    2      5.98e+00     00000 Davidson Iteration
    3      2.88e-01     00000 Davidson Iteration
    4      1.86e-01     00000 Davidson Iteration
    5      1.03e-01     00000 Davidson Iteration
    6      3.93e-02     00000 Davidson Iteration
    7      1.41e-02     00000 Davidson Iteration
    8      1.83e-03     00000 Davidson Iteration
    9      3.46e-04     00000 Davidson Iteration
   10      1.14e-04     00000 Davidson Iteration
   11      3.96e-05     00000 Davidson Iteration
   12      2.64e-04     00000 Davidson Iteration
   13      8.29e-05     00000 Davidson Converged
converged_eigenvalues
   0.0602
   0.4231
Threshold for negative eigenvalues: -1.0e-05
solution was a local minimum (stable)
===================================================
End Test for Internal Stability
===================================================
Our SCF solution is stable!
Timing for Total SCF: 63340.00s (wall), 506141.96s (cpu)
 Total energy in the final basis set =     -236.7802477434
<S^2> =          0.144979864
    ==================================================
              The end of Object-Oriented SCFman       
    ==================================================
 
 --------------------------------------------------------------
 
                    Orbital Energies (a.u.)
 --------------------------------------------------------------
 
 Alpha MOs
 -- Occupied --
-26.374 -26.374 -11.454  -1.750  -1.668  -0.963  -0.827  -0.805
 -0.777  -0.702  -0.686  -0.485
 -- Virtual --
  0.049   0.054   0.058   0.059   0.100   0.121   0.146   0.157
  0.165   0.167   0.195   0.216   0.222   0.245   0.252   0.262
  0.264   0.284   0.309   0.328   0.344   0.442   0.474   0.514
  0.531   0.568   0.588   0.605   0.606   0.616   0.616   0.630
  0.642   0.651   0.666   0.668   0.685   0.687   0.688   0.694
  0.723   0.732   0.738   0.741   0.768   0.778   0.819   0.841
  0.876   1.006   1.100   1.141   1.187   1.198   1.229   1.309
  1.368   1.374   1.466   1.475   1.496   1.498   1.525   1.541
  1.549   1.552   1.562   1.576   1.624   1.631   1.642   1.668
  1.684   1.691   1.698   1.716   1.759   1.763   1.772   1.779
  1.804   1.855   1.859   1.873   1.912   1.933   1.961   1.962
  1.968   2.015   2.025   2.164   2.172   2.203   2.211   2.326
  2.395   2.411   2.416   2.465   2.475   2.510   2.623   2.685
  3.027   3.039   3.116   3.131   3.203   3.204   3.249   3.316
  3.362   3.364   3.500   3.511   3.552   3.591   3.614   3.647
  3.655   3.676   3.689   3.705   3.734   3.820   3.839   3.852
  3.859   3.877   3.885   3.919   3.923   3.949   3.977   3.979
  3.986   3.996   3.998   4.029   4.029   4.066   4.091   4.095
  4.108   4.109   4.230   4.248   4.276   4.307   4.334   4.377
  4.431   4.467   4.490   4.517   4.535   4.537   4.667   4.742
  4.752   4.793   4.807   4.843   4.930   4.936   4.998   5.046
  5.115   5.126   5.337   5.361   5.571   5.654   5.708   5.734
  5.811   5.930   5.954   5.985   6.056   6.161   6.194   6.422
  6.494   6.612   6.615   6.741   6.784   6.846   7.018   7.114
  7.221   7.626   7.913   7.921   8.012   8.022   8.151   8.192
  8.229   8.238   8.254   8.331   8.375   8.382   8.400   8.547
  8.561   8.567   8.604   8.661   8.675   8.776   8.792   8.869
  9.011   9.043   9.046   9.053   9.104   9.129   9.165   9.199
  9.223   9.238   9.299   9.367   9.375   9.398   9.408   9.441
  9.443   9.467   9.490   9.519   9.555   9.681   9.705   9.781
  9.783   9.818   9.910   9.922  10.002  10.053  10.089  10.151
 10.182  10.186  10.277  10.282  10.423  10.593  10.660  10.681
 10.763  10.829  10.960  10.967  11.048  11.066  11.068  11.128
 11.189  11.264  11.282  11.321  11.391  11.450  11.503  11.542
 11.757  11.896  11.900  11.940  11.947  12.103  12.144  12.270
 12.332  12.492  12.557  12.801  12.827  12.964  13.248  13.560
 14.382  14.406  14.433  14.653  14.761  14.869  15.333  15.515
 16.979  17.024  17.207  17.346  18.427  19.436  20.107  20.865
 20.885  20.917  20.919  21.006  21.047  21.078  21.096  21.110
 21.358  21.366  21.472  21.534  21.633  21.635  21.650  21.659
 21.689  21.726  21.736  21.764  21.770  21.788  22.743  23.304
 24.513  24.514  24.544  24.553  24.682  24.711  24.725  24.776
 24.879  24.930  24.938  24.976  25.174  25.180  25.190  25.378
 25.393  25.558  25.589  25.625  25.647  25.732  26.110  26.177
 26.277  26.333  26.629  26.694  26.794  26.887  27.046  27.116
 28.462  28.539  28.557  28.574  29.442  29.485  29.733  29.807
 30.175  30.184  35.836  35.935  36.240  36.851  37.388  37.782
 38.107  46.855  46.901  46.946  46.949  47.095  47.153  47.202
 47.291  47.368  47.627  47.674  48.667  49.018  50.568  59.220
 60.524  61.283  79.542  79.585  79.598  79.603  80.165  80.197
 80.397  80.401  80.653  80.700  92.837  92.849  92.865  92.873
 93.061  93.081  93.108  93.134  93.268  93.297  93.312  93.376
 93.457  93.465 103.709 103.936 107.763 107.809 108.032 108.443
108.807 129.857 131.820 131.855 131.961 132.026 133.464 133.480
165.133 166.195 166.832 167.338 167.338 167.344 167.345 167.349
167.351 167.353 167.370 167.375 188.127 188.154 188.248 188.300
188.302 188.471 188.501 234.138 234.166 234.176 234.180 234.576
234.599 234.742 234.742 234.918 234.953 249.685 249.685 249.686
249.686 249.687 249.687 249.689 249.689 249.691 249.692 249.692
249.693 249.693 249.694 249.698 249.702 249.704 249.705 274.282
274.507 329.495 329.512 329.683 329.945 330.190 337.498 366.577
366.606 366.689 366.723 367.347 367.350 367.362 367.366 367.377
367.378 367.445 367.454 367.483 367.495 367.548 367.561 367.596
367.599 368.160 368.218 465.067 465.970 466.520 712.833 712.851
712.859 712.861 713.139 713.156 713.249 713.251 713.353 713.375
718.401 718.6211028.9221028.9481029.0201029.0631030.0331030.109
*******2525.0862525.763
 
 Beta MOs
 -- Occupied --
-26.374 -26.374 -11.454  -1.750  -1.668  -0.963  -0.827  -0.805
 -0.777  -0.702  -0.686  -0.485
 -- Virtual --
  0.049   0.054   0.058   0.059   0.100   0.121   0.146   0.157
  0.165   0.167   0.195   0.216   0.222   0.245   0.252   0.262
  0.264   0.284   0.309   0.328   0.344   0.442   0.474   0.514
  0.531   0.568   0.588   0.605   0.606   0.616   0.616   0.630
  0.642   0.651   0.666   0.668   0.685   0.687   0.688   0.694
  0.723   0.732   0.738   0.741   0.768   0.778   0.819   0.841
  0.876   1.006   1.100   1.141   1.187   1.198   1.229   1.309
  1.368   1.374   1.466   1.475   1.496   1.498   1.525   1.541
  1.549   1.552   1.562   1.576   1.624   1.631   1.642   1.668
  1.684   1.691   1.698   1.716   1.759   1.763   1.772   1.779
  1.804   1.855   1.859   1.873   1.912   1.933   1.961   1.962
  1.968   2.015   2.025   2.164   2.172   2.203   2.211   2.326
  2.395   2.411   2.416   2.465   2.475   2.510   2.623   2.685
  3.027   3.039   3.116   3.131   3.203   3.204   3.249   3.316
  3.362   3.364   3.500   3.511   3.552   3.591   3.614   3.647
  3.655   3.676   3.689   3.705   3.734   3.820   3.839   3.852
  3.859   3.877   3.885   3.919   3.923   3.949   3.977   3.979
  3.986   3.996   3.998   4.029   4.029   4.066   4.091   4.095
  4.108   4.109   4.230   4.248   4.276   4.307   4.334   4.377
  4.431   4.467   4.490   4.517   4.535   4.537   4.667   4.742
  4.752   4.793   4.807   4.843   4.930   4.936   4.998   5.046
  5.115   5.126   5.337   5.361   5.571   5.654   5.708   5.734
  5.811   5.930   5.954   5.985   6.056   6.161   6.194   6.422
  6.494   6.612   6.615   6.741   6.784   6.846   7.018   7.114
  7.221   7.626   7.913   7.921   8.012   8.022   8.151   8.192
  8.229   8.238   8.254   8.331   8.375   8.382   8.400   8.547
  8.561   8.567   8.604   8.661   8.675   8.776   8.792   8.869
  9.011   9.043   9.046   9.053   9.104   9.129   9.165   9.199
  9.223   9.238   9.299   9.367   9.375   9.398   9.408   9.441
  9.443   9.467   9.490   9.519   9.555   9.681   9.705   9.781
  9.783   9.818   9.910   9.922  10.002  10.053  10.089  10.151
 10.182  10.186  10.277  10.282  10.423  10.593  10.660  10.681
 10.763  10.829  10.960  10.967  11.048  11.066  11.068  11.128
 11.189  11.264  11.282  11.321  11.391  11.450  11.503  11.542
 11.757  11.896  11.900  11.940  11.947  12.103  12.144  12.270
 12.332  12.492  12.557  12.801  12.827  12.964  13.248  13.560
 14.382  14.406  14.433  14.653  14.761  14.869  15.333  15.515
 16.979  17.024  17.207  17.346  18.427  19.436  20.107  20.865
 20.885  20.917  20.919  21.006  21.047  21.078  21.096  21.110
 21.358  21.366  21.472  21.534  21.633  21.635  21.650  21.659
 21.689  21.726  21.736  21.764  21.770  21.788  22.743  23.304
 24.513  24.514  24.544  24.553  24.682  24.711  24.725  24.776
 24.879  24.930  24.938  24.976  25.174  25.180  25.190  25.378
 25.393  25.558  25.589  25.625  25.647  25.732  26.110  26.177
 26.277  26.333  26.629  26.694  26.794  26.887  27.046  27.116
 28.462  28.539  28.557  28.574  29.442  29.485  29.733  29.807
 30.175  30.184  35.836  35.935  36.240  36.851  37.388  37.782
 38.107  46.855  46.901  46.946  46.949  47.095  47.153  47.202
 47.291  47.368  47.627  47.674  48.667  49.018  50.568  59.220
 60.524  61.283  79.542  79.585  79.598  79.603  80.165  80.197
 80.397  80.401  80.653  80.700  92.837  92.849  92.865  92.873
 93.061  93.081  93.108  93.134  93.268  93.297  93.312  93.376
 93.457  93.465 103.709 103.936 107.763 107.809 108.032 108.443
108.807 129.857 131.820 131.855 131.961 132.026 133.464 133.480
165.133 166.195 166.832 167.338 167.338 167.344 167.345 167.349
167.351 167.353 167.370 167.375 188.127 188.154 188.248 188.300
188.302 188.471 188.501 234.138 234.166 234.176 234.180 234.576
234.599 234.742 234.742 234.918 234.953 249.685 249.685 249.686
249.686 249.687 249.687 249.689 249.689 249.691 249.692 249.692
249.693 249.693 249.694 249.698 249.702 249.704 249.705 274.282
274.507 329.495 329.512 329.683 329.945 330.190 337.498 366.577
366.606 366.689 366.723 367.347 367.350 367.362 367.366 367.377
367.378 367.445 367.454 367.483 367.495 367.548 367.561 367.596
367.599 368.160 368.218 465.067 465.970 466.520 712.833 712.851
712.859 712.861 713.139 713.156 713.249 713.251 713.353 713.375
718.401 718.6211028.9221028.9481029.0201029.0631030.0331030.109
*******2525.0862525.763
 --------------------------------------------------------------
 
          Ground-State Mulliken Net Atomic Charges

     Atom                 Charge (a.u.)    Spin (a.u.)
  --------------------------------------------------------
      1 C                     0.694992       0.000000
      2 F                    -0.347496       0.000000
      3 F                    -0.347496      -0.000000
  --------------------------------------------------------
  Sum of atomic charges =    -0.000000
  Sum of spin   charges =     0.000000

 -----------------------------------------------------------------
                    Cartesian Multipole Moments
 -----------------------------------------------------------------
    Charge (ESU x 10^10)
                -0.0000
    Dipole Moment (Debye)
         X      -0.0000      Y      -0.0000      Z      -0.2072
       Tot       0.2072
    Quadrupole Moments (Debye-Ang)
        XX     -14.1199     XY       0.0000     YY     -16.2871
        XZ      -0.0000     YZ       0.0000     ZZ     -16.9717
    Octopole Moments (Debye-Ang^2)
       XXX      -0.0000    XXY       0.0000    XYY      -0.0000
       YYY       0.0000    XXZ      -1.5066    XYZ       0.0000
       YYZ      -1.3271    XZZ      -0.0000    YZZ       0.0000
       ZZZ      -8.4147
    Hexadecapole Moments (Debye-Ang^3)
      XXXX     -10.5617   XXXY       0.0000   XXYY     -13.6196
      XYYY       0.0000   YYYY     -71.6454   XXXZ      -0.0000
      XXYZ      -0.0000   XYYZ      -0.0000   YYYZ       0.0000
      XXZZ      -6.7895   XYZZ       0.0000   YYZZ     -16.1395
      XZZZ      -0.0000   YZZZ      -0.0000   ZZZZ     -33.9318
 -----------------------------------------------------------------
Archival summary:
1\1\n0068.mhg0\SP\HF\BasisUnspecified\21\yhljason\FriNov1321:57:482020FriNov1321:57:482020\0\\#,HF,BasisUnspecified,\\0,1\C\F,1,1.2972\F,1,1.2972,2,104.864\\HF=-236.780248\\@

 Total job time:  64444.97s(wall), 514876.51s(cpu) 
 Fri Nov 13 21:57:48 2020

        *************************************************************
        *                                                           *
        *  Thank you very much for using Q-Chem.  Have a nice day.  *
        *                                                           *
        *************************************************************


