Q-Chem Developer Version!
                  Welcome to Q-Chem
     A Quantum Leap Into The Future Of Chemistry


 Q-Chem 5.1, Q-Chem, Inc., Pleasanton, CA (2018)

 Yihan Shao,  Zhengting Gan,  E. Epifanovsky,  A. T. B. Gilbert,  M. Wormit,  
 J. Kussmann,  A. W. Lange,  A. Behn,  Jia Deng,  Xintian Feng,  D. Ghosh,  
 M. Goldey,  P. R. Horn,  L. D. Jacobson,  I. Kaliman,  T. Kus,  A. Landau,  
 Jie Liu,  E. I. Proynov,  R. M. Richard,  R. P. Steele,  E. J. Sundstrom,  
 H. L. Woodcock III,  P. M. Zimmerman,  D. Zuev,  B. Albrecht,  E. Alguire,  
 S. A. Baeppler,  D. Barton,  Z. Benda,  Y. A. Bernard,  E. J. Berquist,  
 K. B. Bravaya,  H. Burton,  D. Casanova,  Chun-Min Chang,  Yunqing Chen,  
 A. Chien,  K. D. Closser,  M. P. Coons,  S. Coriani,  S. Dasgupta,  
 A. L. Dempwolff,  M. Diedenhofen,  Hainam Do,  R. G. Edgar,  Po-Tung Fang,  
 S. Faraji,  S. Fatehi,  Qingguo Feng,  K. D. Fenk,  J. Fosso-Tande,  
 Qinghui Ge,  A. Ghysels,  G. Gidofalvi,  J. Gomes,  J. Gonthier,  A. Gunina,  
 D. Hait,  M. W. D. Hanson-Heine,  P. H. P. Harbach,  A. W. Hauser,  
 J. E. Herr,  E. G. Hohenstein,  Z. C. Holden,  Kerwin Hui,  B. C. Huynh,  
 T.-C. Jagau,  Hyunjun Ji,  B. Kaduk,  K. Khistyaev,  Jaehoon Kim,  
 P. Klunzinger,  K. Koh,  D. Kosenkov,  L. Koulias,  T. Kowalczyk,  
 C. M. Krauter,  A. Kunitsa,  Ka Un Lao,  A. Laurent,  K. V. Lawler,  
 Joonho Lee,  D. Lefrancois,  S. Lehtola,  D. S. Levine,  Yi-Pei Li,  
 You-Sheng Lin,  Fenglai Liu,  E. Livshits,  A. Luenser,  P. Manohar,  
 E. Mansoor,  S. F. Manzer,  Shan-Ping Mao,  Yuezhi Mao,  N. Mardirossian,  
 A. V. Marenich,  T. Markovich,  L. A. Martinez-Martinez,  S. A. Maurer,  
 N. J. Mayhall,  S. C. McKenzie,  J.-M. Mewes,  A. F. Morrison,  
 J. W. Mullinax,  K. Nanda,  T. S. Nguyen-Beck,  R. Olivares-Amaya,  
 J. A. Parkhill,  T. M. Perrine,  F. Plasser,  P. Pokhilko,  S. Prager,  
 A. Prociuk,  E. Ramos,  D. R. Rehn,  F. Rob,  M. Schneider,  N. Sergueev,  
 S. M. Sharada,  S. Sharma,  D. W. Small,  T. Stauch,  T. Stein,  
 Yu-Chuan Su,  A. J. W. Thom,  A. Tkatchenko,  T. Tsuchimochi,  N. M. Tubman,  
 L. Vogt,  M. L. Vidal,  O. Vydrov,  M. A. Watson,  J. Wenzel,  
 M. de Wergifosse,  T. A. Wesolowski,  A. White,  J. Witte,  A. Yamada,  
 Jun Yang,  K. Yao,  S. Yeganeh,  S. R. Yost,  Zhi-Qiang You,  A. Zech,  
 Igor Ying Zhang,  Xing Zhang,  Yan Zhao,  Ying Zhu,  B. R. Brooks,  
 G. K. L. Chan,  C. J. Cramer,  M. S. Gordon,  W. J. Hehre,  A. Klamt,  
 M. W. Schmidt,  C. D. Sherrill,  D. G. Truhlar,  A. Aspuru-Guzik,  R. Baer,  
 A. T. Bell,  N. A. Besley,  Jeng-Da Chai,  A. E. DePrince, III,  
 R. A. DiStasio Jr.,  A. Dreuw,  B. D. Dunietz,  T. R. Furlani,  
 Chao-Ping Hsu,  Yousung Jung,  Jing Kong,  D. S. Lambrecht,  WanZhen Liang,  
 C. Ochsenfeld,  V. A. Rassolov,  L. V. Slipchenko,  J. E. Subotnik,  
 T. Van Voorhis,  J. M. Herbert,  A. I. Krylov,  P. M. W. Gill,  M. Head-Gordon

 Contributors to earlier versions of Q-Chem not listed above: 
 R. D. Adamson,  B. Austin,  J. Baker,  G. J. O. Beran,  K. Brandhorst,  
 S. T. Brown,  E. F. C. Byrd,  A. K. Chakraborty,  C.-L. Cheng,  
 Siu Hung Chien,  D. M. Chipman,  D. L. Crittenden,  H. Dachsel,  
 R. J. Doerksen,  A. D. Dutoi,  L. Fusti-Molnar,  W. A. Goddard III,  
 A. Golubeva-Zadorozhnaya,  S. R. Gwaltney,  G. Hawkins,  A. Heyden,  
 S. Hirata,  G. Kedziora,  F. J. Keil,  C. Kelley,  Jihan Kim,  R. A. King,  
 R. Z. Khaliullin,  P. P. Korambath,  W. Kurlancheek,  A. M. Lee,  M. S. Lee,  
 S. V. Levchenko,  Ching Yeh Lin,  D. Liotard,  R. C. Lochan,  I. Lotan,  
 P. E. Maslen,  N. Nair,  D. P. O'Neill,  D. Neuhauser,  E. Neuscamman,  
 C. M. Oana,  R. Olson,  B. Peters,  R. Peverati,  P. A. Pieniazek,  
 Y. M. Rhee,  J. Ritchie,  M. A. Rohrdanz,  E. Rosta,  N. J. Russ,  
 H. F. Schaefer III,  N. E. Schultz,  N. Shenvi,  A. C. Simmonett,  A. Sodt,  
 D. Stuck,  K. S. Thanthiriwatte,  V. Vanovschi,  Tao Wang,  A. Warshel,  
 C. F. Williams,  Q. Wu,  X. Xu,  W. Zhang

 Please cite Q-Chem as follows:
 Y. Shao et al., Mol. Phys. 113, 184-215 (2015)
 DOI: 10.1080/00268976.2014.952696

 Q-Chem 5.1.1 for Intel X86 EM64T Linux

 Parts of Q-Chem use Armadillo 8.300.2 (Tropical Shenanigans).
 http://arma.sourceforge.net/

 Q-Chem begins on Sat Oct 31 06:51:18 2020  

Host: n0032.mhg0
0

     Scratch files written to /local/scratch/users/yhljason/NaCl_M11-L_aug-pc-4.inp20201031025153//
Input Ideriv = 2
Curr. Ideriv = -1
Max.  Ideriv = 2
Input Ideriv = 1
Curr. Ideriv = 2
Max.  Ideriv = 1

Checking the input file for inconsistencies... 	...done.

--------------------------------------------------------------
User input:
--------------------------------------------------------------
$molecule
0 1
Na1     0.0000  0.0000  0.0000
Cl2     0.0000  0.0000  2.3608
$end

$rem
jobtype sp
method M11-L
xc_grid 000099000590
basis aug-pc-4
max_scf_cycles 200
thresh 14
scf_convergence 8
scf_algorithm gdm
symmetry false
sym_ignore true
unrestricted True
gen_scfman true
internal_stability_iter 15
internal_stability_davidson_iter 200
mem_total 64000
mem_static 1500
n_frozen_core 0
$end



--------------------------------------------------------------
 ----------------------------------------------------------------
             Standard Nuclear Orientation (Angstroms)
    I     Atom           X                Y                Z
 ----------------------------------------------------------------
    1      Na      0.0000000000     0.0000000000     0.0000000000
    2      Cl      0.0000000000     0.0000000000     2.3608000000
 ----------------------------------------------------------------
 Nuclear Repulsion Energy =    41.9163581920 hartrees
 There are       14 alpha and       14 beta electrons
 Requested basis set is aug-pc-4
 There are 54 shells and 226 basis functions

 Total QAlloc Memory Limit  64000 MB
 Mega-Array Size      1467 MB
 MEM_STATIC part      1500 MB

                       Distance Matrix (Angstroms)
             Na(  1)
   Cl(  2)  2.360800
 
 A cutoff of  1.0D-14 yielded   1482 shell pairs
 There are     26206 function pairs (     49007 Cartesian)
 
 -------------------------------------------------------
 OpenMP Integral Computing Module                       
 Release: version 1.0, May 2013, Q-Chem Inc. Pittsburgh 
 -------------------------------------------------------
 Integral Job Info:
 Integral job number is                      11
 Integral operator is                         1
 short-range coefficients                     0
 long-range coefficients              100000000
 Omega coefficients                         250
 if combine SR and LR in K                    0
 Integral screening is                        0
 Integral computing path is                   2
 max size of driver memory is           6400000
 size of driver memory is               5498286
 size of scratch memory is             27847117
 max col of scratch BK array             194481
 max len of scratch array in speh3         5572
 max len of scratch index in speh4           72
 max int batch size is                      520
 min int batch size is                       52
 fixed nKL is                                 7
 max L of basis functions is                  5
 order of int derivative is                   0
 number of shells is                         54
 number of basis is                         308
 number of cartesian basis is               308
 number of contracted shell pairs          1482
 number of primitive shell pairs          10013
 maxK2 (contraction) of shell pair          225
 max number of K2 of shell pair               1
 max number of CS2 of shell pair            113
 max number of PS2 of shell pair            528
 mem total for path MDJ                  846532
 -------------------------------------------------------
 Smallest overlap matrix eigenvalue = 4.49E-05

 Scale SEOQF with 1.000000e-02/1.000000e-02/1.000000e-02

 Standard Electronic Orientation quadrupole field applied
 Nucleus-field energy     =    -0.0000000010 hartrees
 Guess from superposition of atomic densities
 Warning:  Energy on first SCF cycle will be non-variational
 SAD guess density has 28.000000 electrons

 -----------------------------------------------------------------------
  General SCF calculation program by
  Eric Jon Sundstrom, Paul Horn, Yuezhi Mao, Dmitri Zuev, Alec White,
  David Stuck, Shaama M.S., Shane Yost, Joonho Lee, David Small,
  Daniel Levine, Susi Lehtola, Hugh Burton, Evgeny Epifanovsky
 -----------------------------------------------------------------------
 Exchange:  M11-L      Correlation:  M11-L
 Using Euler-Maclaurin-Lebedev (99,590) quadrature formula
Running Object-Oriented UKS (UHF)
performing a single roothaan step with Fock from read density so that orbitals are available to all algorithms
energy of the guess density (C=0) -622.380439464576
We will preform up to 15 macro iterations over saddle points until a stable solution is found
Energy prior to optimization (guess energy) = -622.436105287262
Begin Timing: Total SCF Calculation
Begin Timing: SCF Single Stationary Point Calculation
begin iterations for algorithm: GDM          
the SCF tolerance is set to 1.00e-08
    1    -622.4361052873      1.21e-01     00000  Descent step
    2    -622.4315371665      1.44e-01     00000 Line search: overstep
    3    -622.4882643094      3.06e-02     00000  Normal BFGS step
    4    -622.4940641967      1.17e-02     00000  Normal BFGS step
    5    -622.4948179448      3.84e-03     00000  Normal BFGS step
    6    -622.4948499102      2.21e-03     00000  Normal BFGS step
    7    -622.4948856686      1.01e-03     00000  Normal BFGS step
    8    -622.4948856697      1.20e-03     00000  Normal BFGS step
    9    -622.4948865460      9.38e-05     00000  Normal BFGS step
   10    -622.4948865678      4.06e-05     00000  Normal BFGS step
   11    -622.4948865766      2.67e-06     00000  Normal BFGS step
   12    -622.4948865767      1.13e-06     00000  Normal BFGS step
   13    -622.4948865767      5.47e-08     00000  Normal BFGS step
   14    -622.4948865767      2.14e-08     00000  Normal BFGS step
   15    -622.4948865767      2.97e-09     00000 Convergence criterion met
Timing for Single Stationary Point: 154.00s (wall), 1224.33s (cpu)
Begin Timing: Stability
===================================================
Beginning Test for Internal Stability
===================================================
generating davidson guess vectors based on koopmans excitations
    1      6.85e-01     00000 Davidson Iteration
    2      4.32e-01     00000 Davidson Iteration
    3      1.96e-01     00000 Davidson Iteration
    4      7.80e-02     00000 Davidson Iteration
    5      1.42e-02     00000 Davidson Iteration
    6      2.37e-03     00000 Davidson Iteration
    7      5.94e-04     00000 Davidson Iteration
    8      2.11e-04     00000 Davidson Iteration
    9      1.04e-04     00000 Davidson Iteration
   10      4.04e-05     00000 Davidson Iteration
   11      5.90e-04     00000 Davidson Iteration
   12      2.02e-04     00000 Davidson Iteration
   13      6.42e-05     00000 Davidson Converged
converged_eigenvalues
   0.1966
   0.1900
Threshold for negative eigenvalues: -1.0e-05
solution was a local minimum (stable)
===================================================
End Test for Internal Stability
===================================================
Our SCF solution is stable!
Timing for Total SCF: 920.00s (wall), 7302.91s (cpu)
 Total energy in the final basis set =     -622.4948865767
<S^2> =         -0.000000000
    ==================================================
              The end of Object-Oriented SCFman       
    ==================================================
 
 --------------------------------------------------------------
 
                    Orbital Energies (a.u.)
 --------------------------------------------------------------
 
 Alpha MOs
 -- Occupied --
******* -38.707  -9.770  -7.060  -7.060  -7.060  -2.399  -1.129
 -1.129  -1.127  -0.689  -0.223  -0.208  -0.208
 -- Virtual --
 -0.114  -0.054  -0.054  -0.043  -0.022  -0.016  -0.016  -0.016
 -0.012  -0.012   0.004   0.004   0.006   0.012   0.018   0.022
  0.022   0.026   0.026   0.031   0.031   0.043   0.043   0.048
  0.056   0.059   0.059   0.068   0.076   0.076   0.080   0.080
  0.085   0.085   0.086   0.086   0.100   0.118   0.145   0.145
  0.145   0.145   0.167   0.167   0.170   0.188   0.188   0.192
  0.227   0.248   0.256   0.256   0.315   0.315   0.320   0.320
  0.350   0.353   0.353   0.363   0.363   0.385   0.385   0.390
  0.451   0.451   0.467   0.467   0.467   0.482   0.482   0.507
  0.507   0.518   0.518   0.533   0.573   0.573   0.577   0.623
  0.656   0.656   0.686   0.686   0.697   0.697   0.718   0.718
  0.730   0.730   0.730   0.795   0.795   0.892   0.892   0.898
  0.898   0.909   0.966   0.966   0.997   1.019   1.019   1.034
  1.034   1.113   1.241   1.241   1.272   1.273   1.298   1.309
  1.309   1.357   1.357   1.383   1.383   1.388   1.420   1.420
  1.529   1.529   1.612   1.632   1.632   1.722   1.722   1.879
  1.879   1.917   1.956   2.273   2.273   2.462   2.462   2.497
  3.075   3.075   3.076   3.076   3.156   3.156   3.184   3.236
  3.236   3.669   3.669   3.718   3.718   3.737   3.897   3.906
  3.906   3.961   3.961   4.098   4.098   4.183   4.183   4.215
  4.341   5.114   5.114   5.260   5.763   5.763   5.845   5.845
  5.845   5.990   5.991   6.015   6.015   6.021   6.021   6.029
  6.029   6.033   6.033   6.034   6.034   6.045   6.136   6.136
  6.549   9.295   9.295   9.296   9.296   9.338   9.338   9.410
  9.410   9.416  13.177  13.177  13.203  13.203  13.293  13.293
 13.352  18.077  18.077  18.161  18.161  18.235  38.624  68.538
 68.538  68.591  68.591  68.638
 
 Beta MOs
 -- Occupied --
******* -38.707  -9.770  -7.060  -7.060  -7.060  -2.399  -1.129
 -1.129  -1.127  -0.689  -0.223  -0.208  -0.208
 -- Virtual --
 -0.114  -0.054  -0.054  -0.043  -0.022  -0.016  -0.016  -0.016
 -0.012  -0.012   0.004   0.004   0.006   0.012   0.018   0.022
  0.022   0.026   0.026   0.031   0.031   0.043   0.043   0.048
  0.056   0.059   0.059   0.068   0.076   0.076   0.080   0.080
  0.085   0.085   0.086   0.086   0.100   0.118   0.145   0.145
  0.145   0.145   0.167   0.167   0.170   0.188   0.188   0.192
  0.227   0.248   0.256   0.256   0.315   0.315   0.320   0.320
  0.350   0.353   0.353   0.363   0.363   0.385   0.385   0.390
  0.451   0.451   0.467   0.467   0.467   0.482   0.482   0.507
  0.507   0.518   0.518   0.533   0.573   0.573   0.577   0.623
  0.656   0.656   0.686   0.686   0.697   0.697   0.718   0.718
  0.730   0.730   0.730   0.795   0.795   0.892   0.892   0.898
  0.898   0.909   0.966   0.966   0.997   1.019   1.019   1.034
  1.034   1.113   1.241   1.241   1.272   1.273   1.298   1.309
  1.309   1.357   1.357   1.383   1.383   1.388   1.420   1.420
  1.529   1.529   1.612   1.632   1.632   1.722   1.722   1.879
  1.879   1.917   1.956   2.273   2.273   2.462   2.462   2.497
  3.075   3.075   3.076   3.076   3.156   3.156   3.184   3.236
  3.236   3.669   3.669   3.718   3.718   3.737   3.897   3.906
  3.906   3.961   3.961   4.098   4.098   4.183   4.183   4.215
  4.341   5.114   5.114   5.260   5.763   5.763   5.845   5.845
  5.845   5.990   5.991   6.015   6.015   6.021   6.021   6.029
  6.029   6.033   6.033   6.034   6.034   6.045   6.136   6.136
  6.549   9.295   9.295   9.296   9.296   9.338   9.338   9.410
  9.410   9.416  13.177  13.177  13.203  13.203  13.293  13.293
 13.352  18.077  18.077  18.161  18.161  18.235  38.624  68.538
 68.538  68.591  68.591  68.638
 --------------------------------------------------------------
 
          Ground-State Mulliken Net Atomic Charges

     Atom                 Charge (a.u.)    Spin (a.u.)
  --------------------------------------------------------
      1 Na                    1.020666       0.000000
      2 Cl                   -1.020666      -0.000000
  --------------------------------------------------------
  Sum of atomic charges =    -0.000000
  Sum of spin   charges =    -0.000000

 -----------------------------------------------------------------
                    Cartesian Multipole Moments
 -----------------------------------------------------------------
    Charge (ESU x 10^10)
                -0.0000
    Dipole Moment (Debye)
         X       0.0000      Y      -0.0000      Z      -8.7520
       Tot       8.7520
    Quadrupole Moments (Debye-Ang)
        XX     -19.3522     XY       0.0000     YY     -19.3522
        XZ      -0.0000     YZ      -0.0000     ZZ     -35.9928
    Octopole Moments (Debye-Ang^2)
       XXX       0.0000    XXY       0.0000    XYY       0.0000
       YYY       0.0000    XXZ     -36.7535    XYZ      -0.0000
       YYZ     -36.7535    XZZ       0.0000    YZZ       0.0000
       ZZZ    -141.2338
    Hexadecapole Moments (Debye-Ang^3)
      XXXX     -27.3914   XXXY       0.0000   XXYY      -9.1305
      XYYY       0.0000   YYYY     -27.3914   XXXZ      -0.0000
      XXYZ       0.0000   XYYZ      -0.0000   YYYZ       0.0000
      XXZZ     -92.7661   XYZZ       0.0000   YYZZ     -92.7661
      XZZZ      -0.0000   YZZZ       0.0000   ZZZZ    -586.2433
 -----------------------------------------------------------------
Archival summary:
1\1\n0032.mhg0\SP\ProcedureUnspecified\BasisUnspecified\l1a1\yhljason\SatOct3107:06:582020SatOct3107:06:582020\0\\#,ProcedureUnspecified,BasisUnspecified,\\0,1\Na\Cl,1,2.3608\\\@

 Total job time:  939.39s(wall), 7443.38s(cpu) 
 Sat Oct 31 07:06:58 2020

        *************************************************************
        *                                                           *
        *  Thank you very much for using Q-Chem.  Have a nice day.  *
        *                                                           *
        *************************************************************


