Q-Chem Developer Version!
                  Welcome to Q-Chem
     A Quantum Leap Into The Future Of Chemistry


 Q-Chem 5.1, Q-Chem, Inc., Pleasanton, CA (2018)

 Yihan Shao,  Zhengting Gan,  E. Epifanovsky,  A. T. B. Gilbert,  M. Wormit,  
 J. Kussmann,  A. W. Lange,  A. Behn,  Jia Deng,  Xintian Feng,  D. Ghosh,  
 M. Goldey,  P. R. Horn,  L. D. Jacobson,  I. Kaliman,  T. Kus,  A. Landau,  
 Jie Liu,  E. I. Proynov,  R. M. Richard,  R. P. Steele,  E. J. Sundstrom,  
 H. L. Woodcock III,  P. M. Zimmerman,  D. Zuev,  B. Albrecht,  E. Alguire,  
 S. A. Baeppler,  D. Barton,  Z. Benda,  Y. A. Bernard,  E. J. Berquist,  
 K. B. Bravaya,  H. Burton,  D. Casanova,  Chun-Min Chang,  Yunqing Chen,  
 A. Chien,  K. D. Closser,  M. P. Coons,  S. Coriani,  S. Dasgupta,  
 A. L. Dempwolff,  M. Diedenhofen,  Hainam Do,  R. G. Edgar,  Po-Tung Fang,  
 S. Faraji,  S. Fatehi,  Qingguo Feng,  K. D. Fenk,  J. Fosso-Tande,  
 Qinghui Ge,  A. Ghysels,  G. Gidofalvi,  J. Gomes,  J. Gonthier,  A. Gunina,  
 D. Hait,  M. W. D. Hanson-Heine,  P. H. P. Harbach,  A. W. Hauser,  
 J. E. Herr,  E. G. Hohenstein,  Z. C. Holden,  Kerwin Hui,  B. C. Huynh,  
 T.-C. Jagau,  Hyunjun Ji,  B. Kaduk,  K. Khistyaev,  Jaehoon Kim,  
 P. Klunzinger,  K. Koh,  D. Kosenkov,  L. Koulias,  T. Kowalczyk,  
 C. M. Krauter,  A. Kunitsa,  Ka Un Lao,  A. Laurent,  K. V. Lawler,  
 Joonho Lee,  D. Lefrancois,  S. Lehtola,  D. S. Levine,  Yi-Pei Li,  
 You-Sheng Lin,  Fenglai Liu,  E. Livshits,  A. Luenser,  P. Manohar,  
 E. Mansoor,  S. F. Manzer,  Shan-Ping Mao,  Yuezhi Mao,  N. Mardirossian,  
 A. V. Marenich,  T. Markovich,  L. A. Martinez-Martinez,  S. A. Maurer,  
 N. J. Mayhall,  S. C. McKenzie,  J.-M. Mewes,  A. F. Morrison,  
 J. W. Mullinax,  K. Nanda,  T. S. Nguyen-Beck,  R. Olivares-Amaya,  
 J. A. Parkhill,  T. M. Perrine,  F. Plasser,  P. Pokhilko,  S. Prager,  
 A. Prociuk,  E. Ramos,  D. R. Rehn,  F. Rob,  M. Schneider,  N. Sergueev,  
 S. M. Sharada,  S. Sharma,  D. W. Small,  T. Stauch,  T. Stein,  
 Yu-Chuan Su,  A. J. W. Thom,  A. Tkatchenko,  T. Tsuchimochi,  N. M. Tubman,  
 L. Vogt,  M. L. Vidal,  O. Vydrov,  M. A. Watson,  J. Wenzel,  
 M. de Wergifosse,  T. A. Wesolowski,  A. White,  J. Witte,  A. Yamada,  
 Jun Yang,  K. Yao,  S. Yeganeh,  S. R. Yost,  Zhi-Qiang You,  A. Zech,  
 Igor Ying Zhang,  Xing Zhang,  Yan Zhao,  Ying Zhu,  B. R. Brooks,  
 G. K. L. Chan,  C. J. Cramer,  M. S. Gordon,  W. J. Hehre,  A. Klamt,  
 M. W. Schmidt,  C. D. Sherrill,  D. G. Truhlar,  A. Aspuru-Guzik,  R. Baer,  
 A. T. Bell,  N. A. Besley,  Jeng-Da Chai,  A. E. DePrince, III,  
 R. A. DiStasio Jr.,  A. Dreuw,  B. D. Dunietz,  T. R. Furlani,  
 Chao-Ping Hsu,  Yousung Jung,  Jing Kong,  D. S. Lambrecht,  WanZhen Liang,  
 C. Ochsenfeld,  V. A. Rassolov,  L. V. Slipchenko,  J. E. Subotnik,  
 T. Van Voorhis,  J. M. Herbert,  A. I. Krylov,  P. M. W. Gill,  M. Head-Gordon

 Contributors to earlier versions of Q-Chem not listed above: 
 R. D. Adamson,  B. Austin,  J. Baker,  G. J. O. Beran,  K. Brandhorst,  
 S. T. Brown,  E. F. C. Byrd,  A. K. Chakraborty,  C.-L. Cheng,  
 Siu Hung Chien,  D. M. Chipman,  D. L. Crittenden,  H. Dachsel,  
 R. J. Doerksen,  A. D. Dutoi,  L. Fusti-Molnar,  W. A. Goddard III,  
 A. Golubeva-Zadorozhnaya,  S. R. Gwaltney,  G. Hawkins,  A. Heyden,  
 S. Hirata,  G. Kedziora,  F. J. Keil,  C. Kelley,  Jihan Kim,  R. A. King,  
 R. Z. Khaliullin,  P. P. Korambath,  W. Kurlancheek,  A. M. Lee,  M. S. Lee,  
 S. V. Levchenko,  Ching Yeh Lin,  D. Liotard,  R. C. Lochan,  I. Lotan,  
 P. E. Maslen,  N. Nair,  D. P. O'Neill,  D. Neuhauser,  E. Neuscamman,  
 C. M. Oana,  R. Olson,  B. Peters,  R. Peverati,  P. A. Pieniazek,  
 Y. M. Rhee,  J. Ritchie,  M. A. Rohrdanz,  E. Rosta,  N. J. Russ,  
 H. F. Schaefer III,  N. E. Schultz,  N. Shenvi,  A. C. Simmonett,  A. Sodt,  
 D. Stuck,  K. S. Thanthiriwatte,  V. Vanovschi,  Tao Wang,  A. Warshel,  
 C. F. Williams,  Q. Wu,  X. Xu,  W. Zhang

 Please cite Q-Chem as follows:
 Y. Shao et al., Mol. Phys. 113, 184-215 (2015)
 DOI: 10.1080/00268976.2014.952696

 Q-Chem 5.1.1 for Intel X86 EM64T Linux

 Parts of Q-Chem use Armadillo 8.300.2 (Tropical Shenanigans).
 http://arma.sourceforge.net/

 Q-Chem begins on Sat Oct 31 07:12:48 2020  

Host: n0054.mhg0
0

     Scratch files written to /local/scratch/users/yhljason/SiH3F_M11-L_aug-pc-4.inp20201031025156//
Input Ideriv = 2
Curr. Ideriv = -1
Max.  Ideriv = 2
Input Ideriv = 1
Curr. Ideriv = 2
Max.  Ideriv = 1

Checking the input file for inconsistencies... 	...done.

--------------------------------------------------------------
User input:
--------------------------------------------------------------
$molecule
0 1
Si1     0.0000  0.0000  0.4986
F2      0.0000  0.0000  -1.0959
H3      0.0000  1.4017  0.9613
H4      -1.2139 -0.7008 0.9613
H5      1.2139  -0.7008 0.9613
$end

$rem
jobtype sp
method M11-L
xc_grid 000099000590
basis aug-pc-4
max_scf_cycles 200
thresh 14
scf_convergence 8
scf_algorithm gdm
symmetry false
sym_ignore true
unrestricted True
gen_scfman true
internal_stability_iter 15
internal_stability_davidson_iter 200
mem_total 64000
mem_static 1500
n_frozen_core 0
$end



--------------------------------------------------------------
 ----------------------------------------------------------------
             Standard Nuclear Orientation (Angstroms)
    I     Atom           X                Y                Z
 ----------------------------------------------------------------
    1      Si      0.0000000000     0.0000000000     0.4986000000
    2      F       0.0000000000     0.0000000000    -1.0959000000
    3      H       0.0000000000     1.4017000000     0.9613000000
    4      H      -1.2139000000    -0.7008000000     0.9613000000
    5      H       1.2139000000    -0.7008000000     0.9613000000
 ----------------------------------------------------------------
 Nuclear Repulsion Energy =    63.2670894214 hartrees
 There are       13 alpha and       13 beta electrons
 Requested basis set is aug-pc-4
 There are 136 shells and 550 basis functions

 Total QAlloc Memory Limit  64000 MB
 Mega-Array Size      1467 MB
 MEM_STATIC part      1500 MB

                       Distance Matrix (Angstroms)
             Si(  1)   F (  2)   H (  3)   H (  4)
   F (  2)  1.594500
   H (  3)  1.476094  2.489344
   H (  4)  1.476064  2.489326  2.427768
   H (  5)  1.476064  2.489326  2.427768  2.427800
 
 A cutoff of  1.0D-14 yielded   8966 shell pairs
 There are    149352 function pairs (    271676 Cartesian)
 
 -------------------------------------------------------
 OpenMP Integral Computing Module                       
 Release: version 1.0, May 2013, Q-Chem Inc. Pittsburgh 
 -------------------------------------------------------
 Integral Job Info:
 Integral job number is                      11
 Integral operator is                         1
 short-range coefficients                     0
 long-range coefficients              100000000
 Omega coefficients                         250
 if combine SR and LR in K                    0
 Integral screening is                        0
 Integral computing path is                   2
 max size of driver memory is           6400000
 size of driver memory is               5498286
 size of scratch memory is             27847117
 max col of scratch BK array             194481
 max len of scratch array in speh3         5572
 max len of scratch index in speh4           72
 max int batch size is                      520
 min int batch size is                       52
 fixed nKL is                                 7
 max L of basis functions is                  5
 order of int derivative is                   0
 number of shells is                        136
 number of basis is                         739
 number of cartesian basis is               739
 number of contracted shell pairs          8966
 number of primitive shell pairs          21890
 maxK2 (contraction) of shell pair          225
 max number of K2 of shell pair               1
 max number of CS2 of shell pair           1057
 max number of PS2 of shell pair           1057
 mem total for path MDJ                 1295920
 -------------------------------------------------------
 Smallest overlap matrix eigenvalue = 1.28E-06

 Scale SEOQF with 1.000000e-01/1.000000e-01/1.000000e-01

 Standard Electronic Orientation quadrupole field applied
 Nucleus-field energy     =    -0.0000000015 hartrees
 Guess from superposition of atomic densities
 Warning:  Energy on first SCF cycle will be non-variational
 SAD guess density has 26.000000 electrons

 -----------------------------------------------------------------------
  General SCF calculation program by
  Eric Jon Sundstrom, Paul Horn, Yuezhi Mao, Dmitri Zuev, Alec White,
  David Stuck, Shaama M.S., Shane Yost, Joonho Lee, David Small,
  Daniel Levine, Susi Lehtola, Hugh Burton, Evgeny Epifanovsky
 -----------------------------------------------------------------------
 Exchange:  M11-L      Correlation:  M11-L
 Using Euler-Maclaurin-Lebedev (99,590) quadrature formula
Running Object-Oriented UKS (UHF)
performing a single roothaan step with Fock from read density so that orbitals are available to all algorithms
energy of the guess density (C=0) -391.109143571690
We will preform up to 15 macro iterations over saddle points until a stable solution is found
Energy prior to optimization (guess energy) = -391.146535640052
Begin Timing: Total SCF Calculation
Begin Timing: SCF Single Stationary Point Calculation
begin iterations for algorithm: GDM          
the SCF tolerance is set to 1.00e-08
    1    -391.1465356401      5.30e-02     00000  Descent step
    2    -391.1732696705      4.84e-02     00000  Normal BFGS step
    3    -391.2009413467      1.52e-02     00000  Normal BFGS step
    4    -391.2014774295      2.85e-02     00000  Normal BFGS step
    5    -391.2031759526      7.64e-03     00000  Normal BFGS step
    6    -391.2032786327      3.46e-03     00000  Normal BFGS step
    7    -391.2034195490      1.02e-03     00000  Normal BFGS step
    8    -391.2034152414      9.81e-04     00000 Line search: overstep
    9    -391.2034291732      2.65e-04     00000  Normal BFGS step
   10    -391.2034302534      2.36e-04     00000  Normal BFGS step
   11    -391.2034303110      1.77e-04     00000  Normal BFGS step
   12    -391.2034304480      3.35e-05     00000  Normal BFGS step
   13    -391.2034304523      1.32e-05     00000  Normal BFGS step
   14    -391.2034304533      1.09e-06     00000  Normal BFGS step
   15    -391.2034304533      1.23e-06     00000  Normal BFGS step
   16    -391.2034304534      1.45e-07     00000  Normal BFGS step
   17    -391.2034304534      2.51e-07     00000  Normal BFGS step
   18    -391.2034304534      2.08e-08     00000  Normal BFGS step
   19    -391.2034304534      1.49e-08     00000  Normal BFGS step
   20    -391.2034304534      5.74e-09     00000 Convergence criterion met
Timing for Single Stationary Point: 1953.00s (wall), 15522.65s (cpu)
Begin Timing: Stability
===================================================
Beginning Test for Internal Stability
===================================================
generating davidson guess vectors based on koopmans excitations
    1      8.39e-01     00000 Davidson Iteration
    2      4.73e-01     00000 Davidson Iteration
    3      3.73e-01     00000 Davidson Iteration
    4      3.16e-01     00000 Davidson Iteration
    5      1.30e-01     00000 Davidson Iteration
    6      5.79e-02     00000 Davidson Iteration
    7      5.44e-02     00000 Davidson Iteration
    8      4.97e-02     00000 Davidson Iteration
    9      4.35e-02     00000 Davidson Iteration
   10      1.84e-02     00000 Davidson Iteration
   11      1.27e-02     00000 Davidson Iteration
   12      1.13e-02     00000 Davidson Iteration
   13      7.54e-03     00000 Davidson Iteration
   14      7.21e-03     00000 Davidson Iteration
   15      3.47e-03     00000 Davidson Iteration
   16      2.88e-03     00000 Davidson Iteration
   17      2.00e-03     00000 Davidson Iteration
   18      1.51e-03     00000 Davidson Iteration
   19      1.06e-03     00000 Davidson Iteration
   20      4.10e-04     00000 Davidson Iteration
   21      1.89e-04     00000 Davidson Iteration
   22      1.30e-04     00000 Davidson Iteration
   23      7.58e-05     00000 Davidson Iteration
   24      4.46e-02     00000 Davidson Iteration
   25      1.80e-02     00000 Davidson Iteration
   26      1.81e-02     00000 Davidson Iteration
   27      2.02e-02     00000 Davidson Iteration
   28      1.57e-02     00000 Davidson Iteration
   29      1.58e-02     00000 Davidson Iteration
   30      1.58e-02     00000 Davidson Iteration
   31      1.47e-02     00000 Davidson Iteration
   32      8.33e-03     00000 Davidson Iteration
   33      9.15e-03     00000 Davidson Iteration
   34      8.07e-03     00000 Davidson Iteration
   35      6.17e-03     00000 Davidson Iteration
   36      3.77e-03     00000 Davidson Iteration
   37      2.21e-03     00000 Davidson Iteration
   38      1.30e-03     00000 Davidson Iteration
   39      5.50e-04     00000 Davidson Iteration
   40      3.09e-04     00000 Davidson Iteration
   41      2.35e-04     00000 Davidson Iteration
   42      1.21e-04     00000 Davidson Iteration
   43      7.36e-05     00000 Davidson Converged
converged_eigenvalues
   0.4781
   0.4783
Threshold for negative eigenvalues: -1.0e-05
solution was a local minimum (stable)
===================================================
End Test for Internal Stability
===================================================
Our SCF solution is stable!
Timing for Total SCF: 49117.00s (wall), 390873.12s (cpu)
 Total energy in the final basis set =     -391.2034304534
<S^2> =          0.000000000
    ==================================================
              The end of Object-Oriented SCFman       
    ==================================================
 
 --------------------------------------------------------------
 
                    Orbital Energies (a.u.)
 --------------------------------------------------------------
 
 Alpha MOs
 -- Occupied --
-66.491 -24.953  -5.620  -3.636  -3.633  -3.633  -1.261  -0.538
 -0.435  -0.422  -0.422  -0.329  -0.329
 -- Virtual --
 -0.065  -0.061  -0.040  -0.040  -0.020  -0.020  -0.016  -0.007
 -0.007   0.010   0.022   0.022   0.022   0.039   0.039   0.039
  0.044   0.045   0.045   0.049   0.049   0.050   0.050   0.074
  0.074   0.088   0.103   0.103   0.108   0.111   0.111   0.112
  0.113   0.118   0.120   0.120   0.133   0.133   0.135   0.135
  0.150   0.154   0.156   0.156   0.177   0.182   0.182   0.200
  0.202   0.202   0.206   0.206   0.221   0.221   0.221   0.221
  0.226   0.226   0.240   0.242   0.242   0.248   0.248   0.260
  0.266   0.274   0.274   0.280   0.285   0.294   0.294   0.312
  0.323   0.323   0.325   0.325   0.355   0.357   0.357   0.361
  0.364   0.369   0.389   0.389   0.389   0.392   0.396   0.397
  0.403   0.403   0.403   0.417   0.418   0.418   0.419   0.419
  0.433   0.433   0.446   0.450   0.450   0.474   0.474   0.485
  0.490   0.490   0.493   0.509   0.511   0.511   0.525   0.525
  0.527   0.540   0.540   0.543   0.559   0.564   0.564   0.583
  0.583   0.593   0.594   0.598   0.598   0.601   0.616   0.620
  0.620   0.633   0.650   0.650   0.656   0.659   0.659   0.671
  0.671   0.693   0.698   0.698   0.711   0.711   0.718   0.731
  0.731   0.732   0.737   0.757   0.757   0.773   0.794   0.794
  0.794   0.808   0.813   0.816   0.816   0.830   0.830   0.850
  0.866   0.866   0.877   0.877   0.894   0.894   0.901   0.944
  0.944   0.944   0.947   0.969   0.972   0.972   0.987   0.987
  1.006   1.006   1.047   1.047   1.057   1.093   1.101   1.117
  1.117   1.150   1.150   1.151   1.172   1.172   1.187   1.197
  1.197   1.212   1.238   1.268   1.268   1.268   1.277   1.309
  1.309   1.328   1.337   1.337   1.393   1.402   1.402   1.418
  1.430   1.430   1.473   1.496   1.496   1.532   1.532   1.543
  1.543   1.550   1.560   1.560   1.587   1.587   1.592   1.674
  1.723   1.734   1.734   1.739   1.739   1.853   2.049   2.104
  2.104   2.160   2.160   2.162   2.230   2.234   2.234   2.294
  2.296   2.296   2.374   2.377   2.377   2.416   2.416   2.421
  2.447   2.447   2.455   2.515   2.572   2.580   2.580   2.619
  2.619   2.693   2.701   2.730   2.730   2.772   2.862   2.862
  2.930   3.002   3.002   3.133   3.133   3.192   3.262   3.281
  3.307   3.307   3.368   3.368   3.382   3.382   3.407   3.407
  3.433   3.623   3.663   3.678   3.678   3.694   3.704   3.704
  3.714   3.787   3.824   3.824   3.868   3.868   3.999   4.015
  4.015   4.047   4.107   4.110   4.111   4.205   4.205   4.347
  4.409   4.409   4.541   4.668   4.705   4.705   4.867   4.867
  4.892   4.997   4.997   5.012   5.034   5.034   5.156   5.156
  5.260   5.321   5.359   5.359   5.436   5.436   5.480   5.545
  5.545   5.649   5.649   5.746   5.859   5.859   5.875   5.911
  5.911   6.000   6.051   6.227   6.227   6.379   6.379   6.397
  6.513   6.513   6.548   6.620   6.805   6.805   6.829   6.943
  7.020   7.029   7.029   7.044   7.044   7.362   7.363   7.483
  7.483   7.516   7.590   7.590   7.767   7.817   8.023   8.488
  8.488   8.827   8.866   8.866   8.991   8.991   9.039   9.080
  9.080   9.243   9.392   9.392   9.409   9.443   9.449   9.449
  9.514   9.547   9.548   9.589   9.718   9.718   9.777   9.864
  9.864   9.902   9.902   9.943  10.444  10.486  10.486  10.605
 10.606  10.606  10.981  11.974  12.331  12.331  12.671  12.764
 12.764  12.788  12.788  12.838  13.075  13.075  13.273  13.299
 13.299  13.452  13.453  13.465  13.573  13.573  13.627  13.627
 13.661  13.688  13.688  13.691  13.716  13.716  13.753  13.781
 13.802  13.808  13.809  13.919  13.920  13.938  13.944  13.945
 14.080  14.080  14.205  15.307  15.307  15.697  15.954  15.954
 16.142  16.152  16.314  16.314  16.388  16.555  16.555  16.646
 16.811  16.811  16.814  16.816  16.816  16.823  16.891  16.892
 17.111  17.676  17.802  17.829  17.830  17.851  17.852  17.867
 17.895  17.896  18.022  18.022  18.053  18.135  18.175  18.176
 18.257  18.407  18.407  18.547  18.646  18.647  21.830  21.831
 21.899  21.933  22.302  22.302  22.448  22.857  22.857  26.077
 26.537  26.578  26.578  26.627  26.627  26.675  27.266  27.267
 28.305  31.688  31.688  31.944  31.944  32.468  43.061  43.061
 43.182  44.295  49.589  49.793  49.794  57.588  57.588  57.999
 57.999  58.036  93.109  93.110  93.335  93.335  93.701 112.887
112.889 113.065 116.116 116.147 116.148 116.188 116.188 116.215
210.765
 
 Beta MOs
 -- Occupied --
-66.491 -24.953  -5.620  -3.636  -3.633  -3.633  -1.261  -0.538
 -0.435  -0.422  -0.422  -0.329  -0.329
 -- Virtual --
 -0.065  -0.061  -0.040  -0.040  -0.020  -0.020  -0.016  -0.007
 -0.007   0.010   0.022   0.022   0.022   0.039   0.039   0.039
  0.044   0.045   0.045   0.049   0.049   0.050   0.050   0.074
  0.074   0.088   0.103   0.103   0.108   0.111   0.111   0.112
  0.113   0.118   0.120   0.120   0.133   0.133   0.135   0.135
  0.150   0.154   0.156   0.156   0.177   0.182   0.182   0.200
  0.202   0.202   0.206   0.206   0.221   0.221   0.221   0.221
  0.226   0.226   0.240   0.242   0.242   0.248   0.248   0.260
  0.266   0.274   0.274   0.280   0.285   0.294   0.294   0.312
  0.323   0.323   0.325   0.325   0.355   0.357   0.357   0.361
  0.364   0.369   0.389   0.389   0.389   0.392   0.396   0.397
  0.403   0.403   0.403   0.417   0.418   0.418   0.419   0.419
  0.433   0.433   0.446   0.450   0.450   0.474   0.474   0.485
  0.490   0.490   0.493   0.509   0.511   0.511   0.525   0.525
  0.527   0.540   0.540   0.543   0.559   0.564   0.564   0.583
  0.583   0.593   0.594   0.598   0.598   0.601   0.616   0.620
  0.620   0.633   0.650   0.650   0.656   0.659   0.659   0.671
  0.671   0.693   0.698   0.698   0.711   0.711   0.718   0.731
  0.731   0.732   0.737   0.757   0.757   0.773   0.794   0.794
  0.794   0.808   0.813   0.816   0.816   0.830   0.830   0.850
  0.866   0.866   0.877   0.877   0.894   0.894   0.901   0.944
  0.944   0.944   0.947   0.969   0.972   0.972   0.987   0.987
  1.006   1.006   1.047   1.047   1.057   1.093   1.101   1.117
  1.117   1.150   1.150   1.151   1.172   1.172   1.187   1.197
  1.197   1.212   1.238   1.268   1.268   1.268   1.277   1.309
  1.309   1.328   1.337   1.337   1.393   1.402   1.402   1.418
  1.430   1.430   1.473   1.496   1.496   1.532   1.532   1.543
  1.543   1.550   1.560   1.560   1.587   1.587   1.592   1.674
  1.723   1.734   1.734   1.739   1.739   1.853   2.049   2.104
  2.104   2.160   2.160   2.162   2.230   2.234   2.234   2.294
  2.296   2.296   2.374   2.377   2.377   2.416   2.416   2.421
  2.447   2.447   2.455   2.515   2.572   2.580   2.580   2.619
  2.619   2.693   2.701   2.730   2.730   2.772   2.862   2.862
  2.930   3.002   3.002   3.133   3.133   3.192   3.262   3.281
  3.307   3.307   3.368   3.368   3.382   3.382   3.407   3.407
  3.433   3.623   3.663   3.678   3.678   3.694   3.704   3.704
  3.714   3.787   3.824   3.824   3.868   3.868   3.999   4.015
  4.015   4.047   4.107   4.110   4.111   4.205   4.205   4.347
  4.409   4.409   4.541   4.668   4.705   4.705   4.867   4.867
  4.892   4.997   4.997   5.012   5.034   5.034   5.156   5.156
  5.260   5.321   5.359   5.359   5.436   5.436   5.480   5.545
  5.545   5.649   5.649   5.746   5.859   5.859   5.875   5.911
  5.911   6.000   6.051   6.227   6.227   6.379   6.379   6.397
  6.513   6.513   6.548   6.620   6.805   6.805   6.829   6.943
  7.020   7.029   7.029   7.044   7.044   7.362   7.363   7.483
  7.483   7.516   7.590   7.590   7.767   7.817   8.023   8.488
  8.488   8.827   8.866   8.866   8.991   8.991   9.039   9.080
  9.080   9.243   9.392   9.392   9.409   9.443   9.449   9.449
  9.514   9.547   9.548   9.589   9.718   9.718   9.777   9.864
  9.864   9.902   9.902   9.943  10.444  10.486  10.486  10.605
 10.606  10.606  10.981  11.974  12.331  12.331  12.671  12.764
 12.764  12.788  12.788  12.838  13.075  13.075  13.273  13.299
 13.299  13.452  13.453  13.465  13.573  13.573  13.627  13.627
 13.661  13.688  13.688  13.691  13.716  13.716  13.753  13.781
 13.802  13.808  13.809  13.919  13.920  13.938  13.944  13.945
 14.080  14.080  14.205  15.307  15.307  15.697  15.954  15.954
 16.142  16.152  16.314  16.314  16.388  16.555  16.555  16.646
 16.811  16.811  16.814  16.816  16.816  16.823  16.891  16.892
 17.111  17.676  17.802  17.829  17.830  17.851  17.852  17.867
 17.895  17.896  18.022  18.022  18.053  18.135  18.175  18.176
 18.257  18.407  18.407  18.547  18.646  18.647  21.830  21.831
 21.899  21.933  22.302  22.302  22.448  22.857  22.857  26.077
 26.537  26.578  26.578  26.627  26.627  26.675  27.266  27.267
 28.305  31.688  31.688  31.944  31.944  32.468  43.061  43.061
 43.182  44.295  49.589  49.793  49.794  57.588  57.588  57.999
 57.999  58.036  93.109  93.110  93.335  93.335  93.701 112.887
112.889 113.065 116.116 116.147 116.148 116.188 116.188 116.215
210.765
 --------------------------------------------------------------
 
          Ground-State Mulliken Net Atomic Charges

     Atom                 Charge (a.u.)    Spin (a.u.)
  --------------------------------------------------------
      1 Si                   -1.718508      -0.000000
      2 F                     1.203811       0.000000
      3 H                     0.172081      -0.000000
      4 H                     0.171308       0.000000
      5 H                     0.171308       0.000000
  --------------------------------------------------------
  Sum of atomic charges =     0.000000
  Sum of spin   charges =    -0.000000

 -----------------------------------------------------------------
                    Cartesian Multipole Moments
 -----------------------------------------------------------------
    Charge (ESU x 10^10)
                -0.0000
    Dipole Moment (Debye)
         X      -0.0000      Y      -0.0001      Z       1.0763
       Tot       1.0763
    Quadrupole Moments (Debye-Ang)
        XX     -19.6915     XY      -0.0000     YY     -19.6912
        XZ       0.0000     YZ      -0.0001     ZZ     -20.5964
    Octopole Moments (Debye-Ang^2)
       XXX      -0.0000    XXY       1.1012    XYY       0.0000
       YYY      -1.1014    XXZ      -4.8798    XYZ      -0.0000
       YYZ      -4.8795    XZZ       0.0000    YZZ      -0.0002
       ZZZ      -7.9894
    Hexadecapole Moments (Debye-Ang^3)
      XXXX     -42.6510   XXXY      -0.0000   XXYY     -14.2170
      XYYY       0.0000   YYYY     -42.6503   XXXZ      -0.0000
      XXYZ       0.5636   XYYZ      -0.0000   YYYZ      -0.5638
      XXZZ     -23.4541   XYZZ      -0.0000   YYZZ     -23.4539
      XZZZ       0.0000   YZZZ      -0.0005   ZZZZ     -89.4279
 -----------------------------------------------------------------
Archival summary:
1\1\n0054.mhg0\SP\ProcedureUnspecified\BasisUnspecified\i113\yhljason\SatOct3120:53:592020SatOct3120:53:592020\0\\#,ProcedureUnspecified,BasisUnspecified,\\0,1\Si\H,1,1.47606\H,1,1.47606,2,110.649\H,1,1.47609,2,110.646,3,123.001,0\F,1,1.5945,2,108.268,3,-118.501,0\\\@

 Total job time:  49270.94s(wall), 392032.37s(cpu) 
 Sat Oct 31 20:53:59 2020

        *************************************************************
        *                                                           *
        *  Thank you very much for using Q-Chem.  Have a nice day.  *
        *                                                           *
        *************************************************************


