                  Welcome to Q-Chem
     A Quantum Leap Into The Future Of Chemistry


 Q-Chem 5.3 (devel), Q-Chem, Inc., Pleasanton, CA (2020)

 Yihan Shao,  Zhengting Gan,  E. Epifanovsky,  A. T. B. Gilbert,  M. Wormit,  
 J. Kussmann,  A. W. Lange,  A. Behn,  Jia Deng,  Xintian Feng,  D. Ghosh,  
 M. Goldey,  P. R. Horn,  L. D. Jacobson,  I. Kaliman,  T. Kus,  A. Landau,  
 Jie Liu,  E. I. Proynov,  R. M. Richard,  R. P. Steele,  E. J. Sundstrom,  
 H. L. Woodcock III,  P. M. Zimmerman,  D. Zuev,  B. Alam,  B. Albrecht,  
 E. Alguire,  S. A. Baeppler,  D. Barton,  Z. Benda,  Y. A. Bernard,  
 E. J. Berquist,  K. B. Bravaya,  H. Burton,  K. Carter-Fenk,  D. Casanova,  
 Chun-Min Chang,  Yunqing Chen,  A. Chien,  K. D. Closser,  M. P. Coons,  
 S. Coriani,  S. Dasgupta,  A. L. Dempwolff,  M. Diedenhofen,  Hainam Do,  
 R. G. Edgar,  Po-Tung Fang,  S. Faraji,  S. Fatehi,  Qingguo Feng,  
 J. Fosso-Tande,  J. Gayvert,  Qinghui Ge,  A. Ghysels,  G. Gidofalvi,  
 J. Gomes,  J. Gonthier,  A. Gunina,  D. Hait,  M. W. D. Hanson-Heine,  
 P. H. P. Harbach,  A. W. Hauser,  M. F. Herbst,  J. E. Herr,  
 E. G. Hohenstein,  Z. C. Holden,  Kerwin Hui,  B. C. Huynh,  T.-C. Jagau,  
 Hyunjun Ji,  B. Kaduk,  K. Khistyaev,  Jaehoon Kim,  P. Klunzinger,  K. Koh,  
 D. Kosenkov,  L. Koulias,  T. Kowalczyk,  C. M. Krauter,  A. Kunitsa,  
 Ka Un Lao,  A. Laurent,  K. V. Lawler,  Joonho Lee,  D. Lefrancois,  
 S. Lehtola,  D. S. Levine,  Yi-Pei Li,  You-Sheng Lin,  Fenglai Liu,  
 Kuan-Yu Liu,  E. Livshits,  M. Loipersberger,  A. Luenser,  P. Manohar,  
 E. Mansoor,  S. F. Manzer,  Shan-Ping Mao,  Yuezhi Mao,  N. Mardirossian,  
 A. V. Marenich,  T. Markovich,  L. A. Martinez-Martinez,  S. A. Maurer,  
 N. J. Mayhall,  S. C. McKenzie,  J.-M. Mewes,  P. Morgante,  A. F. Morrison,  
 J. W. Mullinax,  K. Nanda,  T. S. Nguyen-Beck,  R. Olivares-Amaya,  
 K. J. Oosterbaan,  J. A. Parkhill,  S. K. Paul,  F. Pavosevic,  Zheng Pei,  
 T. M. Perrine,  F. Plasser,  P. Pokhilko,  S. Prager,  A. Prociuk,  
 E. Ramos,  B. Rana,  D. R. Rehn,  F. Rob,  M. Scheurer,  M. Schneider,  
 N. Sergueev,  S. M. Sharada,  S. Sharma,  D. W. Small,  T. Stauch,  
 C. J. Stein,  T. Stein,  Yu-Chuan Su,  S. P. Veccham,  Zhen Tao,  
 A. J. W. Thom,  A. Tkatchenko,  T. Tsuchimochi,  N. M. Tubman,  L. Vogt,  
 M. L. Vidal,  O. Vydrov,  M. A. Watson,  J. Wenzel,  M. de Wergifosse,  
 T. A. Wesolowski,  A. White,  J. Witte,  A. Yamada,  Jun Yang,  K. Yao,  
 S. Yeganeh,  S. R. Yost,  Zhi-Qiang You,  A. Zech,  Igor Ying Zhang,  
 Xing Zhang,  Yan Zhao,  Ying Zhu,  B. R. Brooks,  G. K. L. Chan,  
 C. J. Cramer,  M. S. Gordon,  W. J. Hehre,  A. Klamt,  M. W. Schmidt,  
 C. D. Sherrill,  D. G. Truhlar,  A. Aspuru-Guzik,  R. Baer,  A. T. Bell,  
 N. A. Besley,  Jeng-Da Chai,  A. E. DePrince, III,  R. A. DiStasio Jr.,  
 A. Dreuw,  B. D. Dunietz,  T. R. Furlani,  Chao-Ping Hsu,  Yousung Jung,  
 Jing Kong,  D. S. Lambrecht,  WanZhen Liang,  C. Ochsenfeld,  
 V. A. Rassolov,  L. V. Slipchenko,  J. E. Subotnik,  T. Van Voorhis,  
 J. M. Herbert,  A. I. Krylov,  P. M. W. Gill,  M. Head-Gordon

 Contributors to earlier versions of Q-Chem not listed above: 
 R. D. Adamson,  B. Austin,  J. Baker,  G. J. O. Beran,  K. Brandhorst,  
 S. T. Brown,  E. F. C. Byrd,  A. K. Chakraborty,  C.-L. Cheng,  
 Siu Hung Chien,  D. M. Chipman,  D. L. Crittenden,  H. Dachsel,  
 R. J. Doerksen,  A. D. Dutoi,  L. Fusti-Molnar,  W. A. Goddard III,  
 A. Golubeva-Zadorozhnaya,  S. R. Gwaltney,  G. Hawkins,  A. Heyden,  
 S. Hirata,  G. Kedziora,  F. J. Keil,  C. Kelley,  Jihan Kim,  R. A. King,  
 R. Z. Khaliullin,  P. P. Korambath,  W. Kurlancheek,  A. M. Lee,  M. S. Lee,  
 S. V. Levchenko,  Ching Yeh Lin,  D. Liotard,  R. C. Lochan,  I. Lotan,  
 P. E. Maslen,  N. Nair,  D. P. O'Neill,  D. Neuhauser,  E. Neuscamman,  
 C. M. Oana,  R. Olson,  B. Peters,  R. Peverati,  P. A. Pieniazek,  
 Y. M. Rhee,  J. Ritchie,  M. A. Rohrdanz,  E. Rosta,  N. J. Russ,  
 H. F. Schaefer III,  N. E. Schultz,  N. Shenvi,  A. C. Simmonett,  A. Sodt,  
 D. Stuck,  K. S. Thanthiriwatte,  V. Vanovschi,  Tao Wang,  A. Warshel,  
 C. F. Williams,  Q. Wu,  X. Xu,  W. Zhang

 Please cite Q-Chem as follows:
 Y. Shao et al., Mol. Phys. 113, 184-215 (2015)
 DOI: 10.1080/00268976.2014.952696

 Q-Chem 5.3.0 for Intel X86 EM64T Linux

 Parts of Q-Chem use Armadillo 9.800.1 (Horizon Scraper).
 http://arma.sourceforge.net/

 Q-Chem begins on Mon Aug 24 05:50:18 2020  

n0089.mhg0
Host: 0

     Scratch files written to /local/scratch/users/yhljason/ClF_HFLYP_aug-pc-4.inp20200824000338//
Processing $rem in /clusterfs/mhg/diptarka/qchem_transmom//config/preferences:
Processing $rem in /global/home/users/yhljason/.qchemrc:

Checking the input file for inconsistencies... 	...done.

--------------------------------------------------------------
User input:
--------------------------------------------------------------
$molecule
0 1
F1      0.0000  0.0000  0.0000
Cl2     0.0000  0.0000  1.6283
$end

$rem
jobtype sp
method HFLYP
xc_grid 000099000590
basis aug-pc-4
max_scf_cycles 200
thresh 14
scf_convergence 8
scf_algorithm gdm
symmetry false
sym_ignore true
unrestricted true
gen_scfman true
internal_stability_iter 15
internal_stability_davidson_iter 200
mem_total 64000
mem_static 1500
n_frozen_core 0
$end


--------------------------------------------------------------
 ----------------------------------------------------------------
             Standard Nuclear Orientation (Angstroms)
    I     Atom           X                Y                Z
 ----------------------------------------------------------------
    1      F       0.0000000000     0.0000000000     0.0000000000
    2      Cl      0.0000000000     0.0000000000     1.6283000000
 ----------------------------------------------------------------
 Nuclear Repulsion Energy =          49.72309357 hartrees
 There are       13 alpha and       13 beta electrons
 Requested basis set is aug-pc-4
 There are 64 shells and 286 basis functions

 Total QAlloc Memory Limit  64000 MB
 Mega-Array Size      1467 MB
 MEM_STATIC part      1500 MB

                       Distance Matrix (Angstroms)
             F (  1)
   Cl(  2)  1.628300

 A cutoff of  1.0D-14 yielded   2063 shell pairs
 There are     41683 function pairs (     82092 Cartesian)
 Smallest overlap matrix eigenvalue = 2.20E-05

 Scale SEOQF with 1.000000e-01/1.000000e-01/1.000000e-01

 Standard Electronic Orientation quadrupole field applied
 Nucleus-field energy     =    -0.0000000048 hartrees
 Guess from superposition of atomic densities
 Warning:  Energy on first SCF cycle will be non-variational
 SAD guess density has 26.000000 electrons

 -----------------------------------------------------------------------
  General SCF calculation program by
  Eric Jon Sundstrom, Paul Horn, Yuezhi Mao, Dmitri Zuev, Alec White,
  David Stuck, Shaama M.S., Shane Yost, Joonho Lee, David Small,
  Daniel Levine, Susi Lehtola, Hugh Burton, Evgeny Epifanovsky,
  Bang C. Huynh
 -----------------------------------------------------------------------
 Exchange:     1.0000 Hartree-Fock
 Correlation:  1.0000 LYP
 Using Euler-Maclaurin-Lebedev (99,590) quadrature formula
Running Object-Oriented UKS (UHF)
performing a single roothaan step with Fock from read density so that orbitals are available to all algorithms
energy of the guess density (C=0) -559.946213262216
We will preform up to 15 macro iterations over saddle points until a stable solution is found
Energy prior to optimization (guess energy) = -559.937473355532
Begin Timing: Total SCF Calculation
Begin Timing: SCF Single Stationary Point Calculation
begin iterations for algorithm: GDM          
the SCF tolerance is set to 1.00e-08
    1    -559.9374733555      5.58e-02     00000  Normal BFGS step
    2    -559.9585626699      2.14e-02     00000  Normal BFGS step
    3    -559.9616108352      3.84e-03     00000  Normal BFGS step
    4    -559.9618175543      2.39e-03     00000  Normal BFGS step
    5    -559.9618540442      4.52e-04     00000  Normal BFGS step
    6    -559.9618552710      1.61e-04     00000  Normal BFGS step
    7    -559.9618554767      2.89e-05     00000  Normal BFGS step
    8    -559.9618554917      1.11e-05     00000  Normal BFGS step
    9    -559.9618554933      2.92e-06     00000  Normal BFGS step
   10    -559.9618554934      4.31e-07     00000  Normal BFGS step
   11    -559.9618554934      6.50e-08     00000  Normal BFGS step
   12    -559.9618554934      1.11e-08     00000  Normal BFGS step
   13    -559.9618554934      1.78e-09     00000 Convergence criterion met
Timing for Single Stationary Point: 678.00s (wall), 5323.95s (cpu)
Begin Timing: Stability
===================================================
Beginning Test for Internal Stability
===================================================
generating davidson guess vectors based on koopmans excitations
 Warning: Hessian-vector products not implemented
 Finite difference Hessian-vector products will be used.
computing hessian-vector products by finite difference
    1      9.19e-01     00000 Davidson Iteration
computing hessian-vector products by finite difference
    2      5.35e-01     00000 Davidson Iteration
computing hessian-vector products by finite difference
    3      1.34e-01     00000 Davidson Iteration
computing hessian-vector products by finite difference
    4      4.57e-02     00000 Davidson Iteration
computing hessian-vector products by finite difference
    5      6.43e-02     00000 Davidson Iteration
computing hessian-vector products by finite difference
    6      1.88e-02     00000 Davidson Iteration
computing hessian-vector products by finite difference
    7      4.06e-03     00000 Davidson Iteration
computing hessian-vector products by finite difference
    8      1.55e-03     00000 Davidson Iteration
computing hessian-vector products by finite difference
    9      8.06e-04     00000 Davidson Iteration
computing hessian-vector products by finite difference
   10      4.32e-04     00000 Davidson Iteration
computing hessian-vector products by finite difference
   11      1.50e-04     00000 Davidson Iteration
computing hessian-vector products by finite difference
   12      3.25e-05     00000 Davidson Iteration
computing hessian-vector products by finite difference
   13      4.67e-05     00000 Davidson Converged
converged_eigenvalues
   0.1499
   0.1499
Threshold for negative eigenvalues: -1.0e-05
solution was a local minimum (stable)
===================================================
End Test for Internal Stability
===================================================
Timing for Internal Stability: 3373.00s (wall), 26408.25s (cpu)
Our SCF solution is stable!
Timing for Total SCF: 4051.00s (wall), 31732.26s (cpu)
 Total energy in the final basis set =     -559.9618554934
<S^2> =         -0.000000000
    ==================================================
              The end of Object-Oriented SCFman       
    ==================================================

 --------------------------------------------------------------

                    Orbital Energies (a.u.)
 --------------------------------------------------------------

 Alpha MOs
 -- Occupied --
******** -26.3901 -10.6857  -8.1535  -8.1508  -8.1508  -1.6750  -1.1402
 -0.7617  -0.7617  -0.7369  -0.5264  -0.5264
 -- Virtual --
  0.0081   0.0353   0.0456   0.0456   0.0648   0.0905   0.0934   0.0934
  0.1663   0.1663   0.1773   0.1773   0.1789   0.1982   0.2103   0.2103
  0.2318   0.2847   0.3062   0.3062   0.3291   0.3291   0.3371   0.3371
  0.3651   0.3651   0.3831   0.3863   0.3863   0.4128   0.4168   0.4168
  0.4507   0.4507   0.5182   0.5182   0.5409   0.5652   0.5652   0.5765
  0.5765   0.6193   0.6336   0.6562   0.6562   0.6729   0.6729   0.6993
  0.7032   0.7032   0.7499   0.7499   0.7755   0.7755   0.7855   0.7865
  0.7865   0.8264   0.8264   0.8603   0.8603   0.8867   0.8896   0.8896
  0.8953   0.8953   0.9109   0.9209   0.9209   0.9747   0.9747   1.0093
  1.0093   1.0130   1.0130   1.0318   1.0318   1.0573   1.0573   1.1370
  1.1370   1.1479   1.1936   1.2279   1.2279   1.3112   1.3112   1.3266
  1.3266   1.3853   1.3894   1.3894   1.3983   1.4141   1.4141   1.4254
  1.4254   1.5178   1.5178   1.5204   1.5204   1.5581   1.6356   1.8459
  1.8459   1.9393   1.9393   1.9844   1.9844   2.0231   2.1601   2.1601
  2.2485   2.3271   2.3271   2.3740   2.4897   2.4897   2.4906   2.4906
  2.5802   2.5802   2.6083   2.6083   2.7305   2.7305   2.7588   2.8354
  2.8354   2.9048   3.1552   3.2317   3.2317   3.2442   3.2442   3.2752
  3.2752   3.4309   3.5669   3.5669   4.1170   4.1170   4.1908   4.1908
  4.3004   4.3067   4.3067   4.4434   4.4434   4.4733   5.0070   5.2587
  5.2587   5.5854   5.6033   5.6033   5.8414   5.8414   5.8743   5.9357
  5.9357   5.9751   5.9901   5.9901   6.0278   6.0278   6.0824   6.0824
  6.0985   6.0985   6.3482   6.3482   6.3673   6.3937   6.3937   6.5505
  6.5505   6.5718   6.5718   6.5858   6.7620   6.7620   7.5140   7.5140
  7.5375   7.6112   7.6112   7.6915   7.6915   8.1980   8.3048   8.3048
  9.1167   9.1167   9.4688   9.6396   9.6396   9.6531   9.6531   9.8154
  9.8154  10.4042  10.4042  10.6447  12.8498  12.8498  13.0985  13.0985
 13.2644  13.2644  13.2898  13.2898  13.2915  13.2915  13.2947  13.2947
 13.4051  13.4392  13.4392  13.6469  13.6469  13.6972  13.7620  13.7620
 14.1092  14.1092  14.6501  15.0330  15.0330  15.3380  15.7222  15.7222
 15.7889  15.7889  16.1321  16.1321  16.1927  16.6750  18.5967  18.5967
 18.6369  18.6369  19.1388  20.9353  20.9353  20.9361  20.9361  21.2028
 21.2028  21.8110  21.8110  22.2696  31.2949  31.2949  31.5164  31.5164
 32.0861  40.9876  42.9493  42.9493  43.1687  44.0939  67.7258  67.7258
 67.7405  67.7405  68.0427  93.0230  93.0230  93.1732  93.1732  93.5760
204.8638

 Beta MOs
 -- Occupied --
******** -26.3901 -10.6857  -8.1535  -8.1508  -8.1508  -1.6750  -1.1402
 -0.7617  -0.7617  -0.7369  -0.5264  -0.5264
 -- Virtual --
  0.0081   0.0353   0.0456   0.0456   0.0648   0.0905   0.0934   0.0934
  0.1663   0.1663   0.1773   0.1773   0.1789   0.1982   0.2103   0.2103
  0.2318   0.2847   0.3062   0.3062   0.3291   0.3291   0.3371   0.3371
  0.3651   0.3651   0.3831   0.3863   0.3863   0.4128   0.4168   0.4168
  0.4507   0.4507   0.5182   0.5182   0.5409   0.5652   0.5652   0.5765
  0.5765   0.6193   0.6336   0.6562   0.6562   0.6729   0.6729   0.6993
  0.7032   0.7032   0.7499   0.7499   0.7755   0.7755   0.7855   0.7865
  0.7865   0.8264   0.8264   0.8603   0.8603   0.8867   0.8896   0.8896
  0.8953   0.8953   0.9109   0.9209   0.9209   0.9747   0.9747   1.0093
  1.0093   1.0130   1.0130   1.0318   1.0318   1.0573   1.0573   1.1370
  1.1370   1.1479   1.1936   1.2279   1.2279   1.3112   1.3112   1.3266
  1.3266   1.3853   1.3894   1.3894   1.3983   1.4141   1.4141   1.4254
  1.4254   1.5178   1.5178   1.5204   1.5204   1.5581   1.6356   1.8459
  1.8459   1.9393   1.9393   1.9844   1.9844   2.0231   2.1601   2.1601
  2.2485   2.3271   2.3271   2.3740   2.4897   2.4897   2.4906   2.4906
  2.5802   2.5802   2.6083   2.6083   2.7305   2.7305   2.7588   2.8354
  2.8354   2.9048   3.1552   3.2317   3.2317   3.2442   3.2442   3.2752
  3.2752   3.4309   3.5669   3.5669   4.1170   4.1170   4.1908   4.1908
  4.3004   4.3067   4.3067   4.4434   4.4434   4.4733   5.0070   5.2587
  5.2587   5.5854   5.6033   5.6033   5.8414   5.8414   5.8743   5.9357
  5.9357   5.9751   5.9901   5.9901   6.0278   6.0278   6.0824   6.0824
  6.0985   6.0985   6.3482   6.3482   6.3673   6.3937   6.3937   6.5505
  6.5505   6.5718   6.5718   6.5858   6.7620   6.7620   7.5140   7.5140
  7.5375   7.6112   7.6112   7.6915   7.6915   8.1980   8.3048   8.3048
  9.1167   9.1167   9.4688   9.6396   9.6396   9.6531   9.6531   9.8154
  9.8154  10.4042  10.4042  10.6447  12.8498  12.8498  13.0985  13.0985
 13.2644  13.2644  13.2898  13.2898  13.2915  13.2915  13.2947  13.2947
 13.4051  13.4392  13.4392  13.6469  13.6469  13.6972  13.7620  13.7620
 14.1092  14.1092  14.6501  15.0330  15.0330  15.3380  15.7222  15.7222
 15.7889  15.7889  16.1321  16.1321  16.1927  16.6750  18.5967  18.5967
 18.6369  18.6369  19.1388  20.9353  20.9353  20.9361  20.9361  21.2028
 21.2028  21.8110  21.8110  22.2696  31.2949  31.2949  31.5164  31.5164
 32.0861  40.9876  42.9493  42.9493  43.1687  44.0939  67.7258  67.7258
 67.7405  67.7405  68.0427  93.0230  93.0230  93.1732  93.1732  93.5760
204.8638
 --------------------------------------------------------------

          Ground-State Mulliken Net Atomic Charges

     Atom                 Charge (a.u.)    Spin (a.u.)
  --------------------------------------------------------
      1 F                    -0.150028       0.000000
      2 Cl                    0.150028      -0.000000
  --------------------------------------------------------
  Sum of atomic charges =    -0.000000
  Sum of spin   charges =    -0.000000

 -----------------------------------------------------------------
                    Cartesian Multipole Moments
 -----------------------------------------------------------------
    Charge (ESU x 10^10)
                 0.0000
    Dipole Moment (Debye)
         X       0.0000      Y       0.0000      Z       1.1751
       Tot       1.1751
    Quadrupole Moments (Debye-Ang)
        XX     -17.2242     XY       0.0000     YY     -17.2242
        XZ      -0.0000     YZ       0.0000     ZZ     -13.6268
    Octopole Moments (Debye-Ang^2)
       XXX      -0.0000    XXY       0.0000    XYY      -0.0000
       YYY       0.0000    XXZ     -20.6364    XYZ       0.0000
       YYZ     -20.6364    XZZ      -0.0000    YZZ       0.0000
       ZZZ     -48.7604
    Hexadecapole Moments (Debye-Ang^3)
      XXXX     -16.4761   XXXY       0.0000   XXYY      -5.4920
      XYYY       0.0000   YYYY     -16.4761   XXXZ      -0.0000
      XXYZ       0.0000   XYYZ      -0.0000   YYYZ       0.0000
      XXZZ     -39.1950   XYZZ       0.0000   YYZZ     -39.1950
      XZZZ      -0.0000   YZZZ       0.0000   ZZZZ    -172.6144
 -----------------------------------------------------------------
Archival summary:
1\1\n0089.mhg0\SP\ProcedureUnspecified\BasisUnspecified\l11\yhljason\MonAug2406:59:362020MonAug2406:59:362020\0\\#,ProcedureUnspecified,BasisUnspecified,\\0,1\F\Cl,1,1.6283\\HF=-559.961855\\@

 Total job time:  4158.59s(wall), 32565.38s(cpu) 
 Mon Aug 24 06:59:36 2020

        *************************************************************
        *                                                           *
        *  Thank you very much for using Q-Chem.  Have a nice day.  *
        *                                                           *
        *************************************************************


