                  Welcome to Q-Chem
     A Quantum Leap Into The Future Of Chemistry


 Q-Chem 5.3 (devel), Q-Chem, Inc., Pleasanton, CA (2020)

 Yihan Shao,  Zhengting Gan,  E. Epifanovsky,  A. T. B. Gilbert,  M. Wormit,  
 J. Kussmann,  A. W. Lange,  A. Behn,  Jia Deng,  Xintian Feng,  D. Ghosh,  
 M. Goldey,  P. R. Horn,  L. D. Jacobson,  I. Kaliman,  T. Kus,  A. Landau,  
 Jie Liu,  E. I. Proynov,  R. M. Richard,  R. P. Steele,  E. J. Sundstrom,  
 H. L. Woodcock III,  P. M. Zimmerman,  D. Zuev,  B. Alam,  B. Albrecht,  
 E. Alguire,  S. A. Baeppler,  D. Barton,  Z. Benda,  Y. A. Bernard,  
 E. J. Berquist,  K. B. Bravaya,  H. Burton,  K. Carter-Fenk,  D. Casanova,  
 Chun-Min Chang,  Yunqing Chen,  A. Chien,  K. D. Closser,  M. P. Coons,  
 S. Coriani,  S. Dasgupta,  A. L. Dempwolff,  M. Diedenhofen,  Hainam Do,  
 R. G. Edgar,  Po-Tung Fang,  S. Faraji,  S. Fatehi,  Qingguo Feng,  
 J. Fosso-Tande,  J. Gayvert,  Qinghui Ge,  A. Ghysels,  G. Gidofalvi,  
 J. Gomes,  J. Gonthier,  A. Gunina,  D. Hait,  M. W. D. Hanson-Heine,  
 P. H. P. Harbach,  A. W. Hauser,  M. F. Herbst,  J. E. Herr,  
 E. G. Hohenstein,  Z. C. Holden,  Kerwin Hui,  B. C. Huynh,  T.-C. Jagau,  
 Hyunjun Ji,  B. Kaduk,  K. Khistyaev,  Jaehoon Kim,  P. Klunzinger,  K. Koh,  
 D. Kosenkov,  L. Koulias,  T. Kowalczyk,  C. M. Krauter,  A. Kunitsa,  
 Ka Un Lao,  A. Laurent,  K. V. Lawler,  Joonho Lee,  D. Lefrancois,  
 S. Lehtola,  D. S. Levine,  Yi-Pei Li,  You-Sheng Lin,  Fenglai Liu,  
 Kuan-Yu Liu,  E. Livshits,  M. Loipersberger,  A. Luenser,  P. Manohar,  
 E. Mansoor,  S. F. Manzer,  Shan-Ping Mao,  Yuezhi Mao,  N. Mardirossian,  
 A. V. Marenich,  T. Markovich,  L. A. Martinez-Martinez,  S. A. Maurer,  
 N. J. Mayhall,  S. C. McKenzie,  J.-M. Mewes,  P. Morgante,  A. F. Morrison,  
 J. W. Mullinax,  K. Nanda,  T. S. Nguyen-Beck,  R. Olivares-Amaya,  
 K. J. Oosterbaan,  J. A. Parkhill,  S. K. Paul,  F. Pavosevic,  Zheng Pei,  
 T. M. Perrine,  F. Plasser,  P. Pokhilko,  S. Prager,  A. Prociuk,  
 E. Ramos,  B. Rana,  D. R. Rehn,  F. Rob,  M. Scheurer,  M. Schneider,  
 N. Sergueev,  S. M. Sharada,  S. Sharma,  D. W. Small,  T. Stauch,  
 C. J. Stein,  T. Stein,  Yu-Chuan Su,  S. P. Veccham,  Zhen Tao,  
 A. J. W. Thom,  A. Tkatchenko,  T. Tsuchimochi,  N. M. Tubman,  L. Vogt,  
 M. L. Vidal,  O. Vydrov,  M. A. Watson,  J. Wenzel,  M. de Wergifosse,  
 T. A. Wesolowski,  A. White,  J. Witte,  A. Yamada,  Jun Yang,  K. Yao,  
 S. Yeganeh,  S. R. Yost,  Zhi-Qiang You,  A. Zech,  Igor Ying Zhang,  
 Xing Zhang,  Yan Zhao,  Ying Zhu,  B. R. Brooks,  G. K. L. Chan,  
 C. J. Cramer,  M. S. Gordon,  W. J. Hehre,  A. Klamt,  M. W. Schmidt,  
 C. D. Sherrill,  D. G. Truhlar,  A. Aspuru-Guzik,  R. Baer,  A. T. Bell,  
 N. A. Besley,  Jeng-Da Chai,  A. E. DePrince, III,  R. A. DiStasio Jr.,  
 A. Dreuw,  B. D. Dunietz,  T. R. Furlani,  Chao-Ping Hsu,  Yousung Jung,  
 Jing Kong,  D. S. Lambrecht,  WanZhen Liang,  C. Ochsenfeld,  
 V. A. Rassolov,  L. V. Slipchenko,  J. E. Subotnik,  T. Van Voorhis,  
 J. M. Herbert,  A. I. Krylov,  P. M. W. Gill,  M. Head-Gordon

 Contributors to earlier versions of Q-Chem not listed above: 
 R. D. Adamson,  B. Austin,  J. Baker,  G. J. O. Beran,  K. Brandhorst,  
 S. T. Brown,  E. F. C. Byrd,  A. K. Chakraborty,  C.-L. Cheng,  
 Siu Hung Chien,  D. M. Chipman,  D. L. Crittenden,  H. Dachsel,  
 R. J. Doerksen,  A. D. Dutoi,  L. Fusti-Molnar,  W. A. Goddard III,  
 A. Golubeva-Zadorozhnaya,  S. R. Gwaltney,  G. Hawkins,  A. Heyden,  
 S. Hirata,  G. Kedziora,  F. J. Keil,  C. Kelley,  Jihan Kim,  R. A. King,  
 R. Z. Khaliullin,  P. P. Korambath,  W. Kurlancheek,  A. M. Lee,  M. S. Lee,  
 S. V. Levchenko,  Ching Yeh Lin,  D. Liotard,  R. C. Lochan,  I. Lotan,  
 P. E. Maslen,  N. Nair,  D. P. O'Neill,  D. Neuhauser,  E. Neuscamman,  
 C. M. Oana,  R. Olson,  B. Peters,  R. Peverati,  P. A. Pieniazek,  
 Y. M. Rhee,  J. Ritchie,  M. A. Rohrdanz,  E. Rosta,  N. J. Russ,  
 H. F. Schaefer III,  N. E. Schultz,  N. Shenvi,  A. C. Simmonett,  A. Sodt,  
 D. Stuck,  K. S. Thanthiriwatte,  V. Vanovschi,  Tao Wang,  A. Warshel,  
 C. F. Williams,  Q. Wu,  X. Xu,  W. Zhang

 Please cite Q-Chem as follows:
 Y. Shao et al., Mol. Phys. 113, 184-215 (2015)
 DOI: 10.1080/00268976.2014.952696

 Q-Chem 5.3.0 for Intel X86 EM64T Linux

 Parts of Q-Chem use Armadillo 9.800.1 (Horizon Scraper).
 http://arma.sourceforge.net/

 Q-Chem begins on Mon Aug 24 07:15:26 2020  

n0032.mhg0
Host: 0

     Scratch files written to /local/scratch/users/yhljason/H2CN_wM05-D_aug-pc-4.inp20200824000342//
Processing $rem in /clusterfs/mhg/diptarka/qchem_transmom//config/preferences:
Processing $rem in /global/home/users/yhljason/.qchemrc:

Checking the input file for inconsistencies... 	...done.

--------------------------------------------------------------
User input:
--------------------------------------------------------------
$molecule
0 2
        C         0.0000000000    0.0000000000   -0.4906000000
        N         0.0000000000    0.0000000000    0.7226000000
        H         0.0000000000    0.9342000000   -1.0572000000
        H         0.0000000000   -0.9342000000   -1.0572000000
$end

$rem
jobtype sp
method wM05-D
xc_grid 000099000590
basis aug-pc-4
max_scf_cycles 200
thresh 14
scf_convergence 8
scf_algorithm gdm
symmetry false
sym_ignore true
unrestricted true
gen_scfman true
internal_stability_iter 15
internal_stability_davidson_iter 200
mem_total 64000
mem_static 1500
n_frozen_core 0
$end


--------------------------------------------------------------
 ----------------------------------------------------------------
             Standard Nuclear Orientation (Angstroms)
    I     Atom           X                Y                Z
 ----------------------------------------------------------------
    1      C       0.0000000000     0.0000000000    -0.4906000000
    2      N       0.0000000000     0.0000000000     0.7226000000
    3      H       0.0000000000     0.9342000000    -1.0572000000
    4      H       0.0000000000    -0.9342000000    -1.0572000000
 ----------------------------------------------------------------
 Nuclear Repulsion Energy =          28.10050345 hartrees
 There are        8 alpha and        7 beta electrons
 Requested basis set is aug-pc-4
 There are 114 shells and 466 basis functions

 Total QAlloc Memory Limit  64000 MB
 Mega-Array Size      1467 MB
 MEM_STATIC part      1500 MB

                       Distance Matrix (Angstroms)
             C (  1)   N (  2)   H (  3)
   N (  2)  1.213200
   H (  3)  1.092596  2.010079
   H (  4)  1.092596  2.010079  1.868400

 A cutoff of  1.0D-14 yielded   6498 shell pairs
 There are    109666 function pairs (    201334 Cartesian)
 Smallest overlap matrix eigenvalue = 1.53E-07
 Linear dependence detected in AO basis
 Tighter screening thresholds may be required for diffuse basis sets
 Use S2THRESH > 14 and THRESH = 14 in case of SCF convergence issues
 Number of orthogonalized atomic orbitals = 463
 Maximum deviation from orthogonality = 2.298E-10

 Scale SEOQF with 1.000000e-01/1.000000e-01/1.000000e-01

 Standard Electronic Orientation quadrupole field applied
 Nucleus-field energy     =    -0.0000000007 hartrees
 Guess from superposition of atomic densities
 Warning:  Energy on first SCF cycle will be non-variational
 SAD guess density has 15.000000 electrons

 -----------------------------------------------------------------------
  General SCF calculation program by
  Eric Jon Sundstrom, Paul Horn, Yuezhi Mao, Dmitri Zuev, Alec White,
  David Stuck, Shaama M.S., Shane Yost, Joonho Lee, David Small,
  Daniel Levine, Susi Lehtola, Hugh Burton, Evgeny Epifanovsky,
  Bang C. Huynh
 -----------------------------------------------------------------------
 Exchange:     0.3696 Hartree-Fock + 1.0000 wM05-D + LR-HF
 Correlation:  1.0000 wM05-D
 Using Euler-Maclaurin-Lebedev (99,590) quadrature formula
 Dispersion:   Grimme D
Running Object-Oriented UKS (UHF)
performing a single roothaan step with Fock from read density so that orbitals are available to all algorithms
energy of the guess density (C=0) -94.174486028843
We will preform up to 15 macro iterations over saddle points until a stable solution is found
Energy prior to optimization (guess energy) = -93.948986628254
Begin Timing: Total SCF Calculation
Begin Timing: SCF Single Stationary Point Calculation
begin iterations for algorithm: GDM          
the SCF tolerance is set to 1.00e-08
    1     -93.9489866283      1.49e-01     00000  Descent step
    2     -93.9514220995      1.59e-01     00000  Normal BFGS step
    3     -93.9819346243      9.05e-03     00000  Normal BFGS step
    4     -93.9825625754      7.85e-03     00000  Normal BFGS step
    5     -93.9828645162      3.48e-03     00000  Normal BFGS step
    6     -93.9829187587      2.00e-03     00000  Normal BFGS step
    7     -93.9829361346      8.92e-04     00000  Normal BFGS step
    8     -93.9829395858      5.70e-04     00000  Normal BFGS step
    9     -93.9829401189      1.60e-04     00000  Normal BFGS step
   10     -93.9829401627      2.59e-05     00000  Normal BFGS step
   11     -93.9829401664      3.51e-06     00000  Normal BFGS step
   12     -93.9829401666      8.84e-07     00000  Normal BFGS step
   13     -93.9829401666      2.08e-07     00000  Normal BFGS step
   14     -93.9829401666      5.34e-08     00000  Normal BFGS step
   15     -93.9829401666      1.60e-08     00000  Normal BFGS step
   16     -93.9829401666      6.88e-09     00000 Convergence criterion met
Timing for Single Stationary Point: 8219.00s (wall), 64983.36s (cpu)
Begin Timing: Stability
===================================================
Beginning Test for Internal Stability
===================================================
generating davidson guess vectors based on koopmans excitations
 Warning: Hessian-vector products not implemented
 Finite difference Hessian-vector products will be used.
computing hessian-vector products by finite difference
    1      3.63e-01     00000 Davidson Iteration
computing hessian-vector products by finite difference
    2      4.90e-01     00000 Davidson Iteration
computing hessian-vector products by finite difference
    3      1.05e-01     00000 Davidson Iteration
computing hessian-vector products by finite difference
    4      1.21e-01     00000 Davidson Iteration
computing hessian-vector products by finite difference
    5      7.27e-02     00000 Davidson Iteration
computing hessian-vector products by finite difference
    6      4.66e-02     00000 Davidson Iteration
computing hessian-vector products by finite difference
    7      7.83e-02     00000 Davidson Iteration
computing hessian-vector products by finite difference
    8      3.27e-02     00000 Davidson Iteration
computing hessian-vector products by finite difference
    9      1.04e-02     00000 Davidson Iteration
computing hessian-vector products by finite difference
   10      3.62e-03     00000 Davidson Iteration
computing hessian-vector products by finite difference
   11      7.70e-03     00000 Davidson Iteration
computing hessian-vector products by finite difference
   12      1.48e-02     00000 Davidson Iteration
computing hessian-vector products by finite difference
   13      3.30e-03     00000 Davidson Iteration
computing hessian-vector products by finite difference
   14      8.84e-04     00000 Davidson Iteration
computing hessian-vector products by finite difference
   15      4.97e-04     00000 Davidson Iteration
computing hessian-vector products by finite difference
   16      7.00e-04     00000 Davidson Iteration
computing hessian-vector products by finite difference
   17      2.78e-04     00000 Davidson Iteration
computing hessian-vector products by finite difference
   18      1.82e-04     00000 Davidson Iteration
computing hessian-vector products by finite difference
   19      1.15e-04     00000 Davidson Iteration
computing hessian-vector products by finite difference
   20      1.13e-04     00000 Davidson Iteration
computing hessian-vector products by finite difference
   21      3.91e-05     00000 Davidson Converged
converged_eigenvalues
   0.2752
   0.3167
Threshold for negative eigenvalues: -1.0e-05
solution was a local minimum (stable)
===================================================
End Test for Internal Stability
===================================================
Timing for Internal Stability: 49326.00s (wall), 389729.84s (cpu)
Our SCF solution is stable!
Timing for Total SCF: 57545.00s (wall), 454713.41s (cpu)
 Total energy in the final basis set =      -93.9829401666
<S^2> =          0.760299683
    ==================================================
              The end of Object-Oriented SCFman       
    ==================================================

 --------------------------------------------------------------

                    Orbital Energies (a.u.)
 --------------------------------------------------------------

 Alpha MOs
 -- Occupied --
-14.5918 -10.4310  -1.0472  -0.7105  -0.6042  -0.4897  -0.4614  -0.3579
 -- Virtual --
  0.0213   0.0318   0.0340   0.0372   0.0494   0.0571   0.0619   0.0781
  0.0783   0.0940   0.1002   0.1160   0.1169   0.1316   0.1350   0.1466
  0.1487   0.1518   0.1577   0.1609   0.1636   0.1673   0.1739   0.1867
  0.2018   0.2146   0.2296   0.2347   0.2388   0.2493   0.2576   0.2722
  0.2739   0.2800   0.2833   0.2834   0.2925   0.2946   0.3043   0.3136
  0.3183   0.3197   0.3210   0.3271   0.3316   0.3443   0.3514   0.3562
  0.3653   0.3706   0.3828   0.3879   0.4046   0.4105   0.4241   0.4370
  0.4375   0.4440   0.4470   0.4551   0.4614   0.4673   0.4729   0.4803
  0.4860   0.4936   0.4947   0.4991   0.5126   0.5275   0.5389   0.5439
  0.5514   0.5530   0.5536   0.5580   0.5634   0.5728   0.5834   0.5884
  0.5887   0.6024   0.6122   0.6128   0.6129   0.6223   0.6281   0.6383
  0.6560   0.6581   0.6601   0.6974   0.6990   0.7053   0.7122   0.7287
  0.7351   0.7363   0.7383   0.7437   0.7487   0.7523   0.7896   0.7987
  0.8102   0.8113   0.8131   0.8268   0.8436   0.8473   0.8525   0.8638
  0.8666   0.8677   0.8677   0.8713   0.8982   0.9033   0.9049   0.9097
  0.9101   0.9130   0.9179   0.9340   0.9482   0.9501   0.9528   0.9560
  0.9586   0.9600   0.9638   0.9739   0.9754   1.0011   1.0088   1.0102
  1.0132   1.0244   1.0249   1.0335   1.0562   1.0635   1.0843   1.0843
  1.0894   1.0987   1.1277   1.1297   1.1433   1.1538   1.1592   1.1744
  1.1973   1.2063   1.2267   1.2494   1.2685   1.3137   1.3163   1.3262
  1.3282   1.3471   1.3809   1.3862   1.4165   1.4736   1.5079   1.5619
  1.5947   1.5961   1.6209   1.6320   1.6700   1.6878   1.6903   1.7217
  1.7478   1.7568   1.7736   1.7980   1.8197   1.8637   1.8660   1.8864
  1.8928   1.9080   1.9585   1.9751   1.9865   2.0154   2.0607   2.1970
  2.2194   2.2401   2.2604   2.2609   2.2828   2.3246   2.3458   2.4042
  2.4207   2.4353   2.4843   2.5185   2.5842   2.5866   2.5948   2.7677
  2.7703   2.8529   2.8722   3.0099   3.1115   3.1400   3.1689   3.2549
  3.2740   3.2808   3.3014   3.3721   3.4335   3.4581   3.5060   3.5148
  3.5793   3.6175   3.6203   3.7181   3.7347   3.7592   3.7904   3.8358
  3.8433   3.9115   3.9714   3.9946   4.0382   4.1003   4.1306   4.1834
  4.2232   4.2770   4.2969   4.4066   4.4913   4.5165   4.5214   4.5351
  4.5442   4.5893   4.6535   4.6845   4.7004   4.7240   4.7478   4.7706
  4.8366   4.9114   4.9141   4.9375   5.0380   5.0836   5.0860   5.1604
  5.1999   5.2963   5.3270   5.4070   5.4117   5.4684   5.5568   5.6259
  5.7065   5.7356   5.8881   5.8956   6.0392   6.0667   6.1323   6.1829
  6.2952   6.3512   6.3903   6.4356   6.5039   6.5326   6.7374   6.8037
  6.8396   6.8682   6.9231   6.9773   6.9828   7.0684   7.2551   7.2987
  7.3852   7.6116   7.7550   7.7811   8.1450   8.2333   8.2740   8.2940
  8.3242   8.6564   8.8350   8.8550   8.8690   8.8871   8.9502   9.0096
  9.1524   9.1712   9.3634   9.3740   9.5924   9.6244   9.8046   9.9148
 10.1601  10.3948  10.4533  10.4892  10.5156  10.5641  10.6700  10.7015
 10.7189  10.8223  10.8369  10.8898  11.1403  11.1499  11.2265  11.2730
 11.2965  11.3256  11.3288  11.3572  11.4263  11.4388  11.4578  11.5077
 11.5326  11.5724  11.6324  11.7623  11.8147  11.9470  11.9754  12.0593
 12.1064  12.1472  12.1476  12.2012  12.2048  12.2604  12.2831  12.3137
 12.4728  12.5373  12.6081  12.7255  12.8157  13.0666  13.0890  13.1058
 13.1151  13.2026  13.2339  13.3435  13.4289  13.4822  13.5335  13.9029
 13.9735  14.1191  14.1238  14.2185  14.4479  14.4526  14.4622  14.4995
 14.6866  14.7041  14.9922  15.0915  15.2416  15.4036  15.5175  15.5608
 15.6124  15.9118  16.1193  16.2846  16.2852  16.2884  16.3007  16.5489
 16.6862  16.7016  16.7279  16.7645  16.9309  16.9340  17.2215  17.2902
 17.5238  17.8172  17.8287  17.9479  18.0618  18.1533  18.3722  18.8376
 18.8907  19.1993  19.3329  19.7328  19.7795  19.8746  20.4903  21.4458
 21.4858  22.0543  22.0996  22.2825  22.5386  23.6757  24.0399  24.3038
 26.3501  26.4905  28.0922  32.4462  33.0059  33.5311  34.3941  34.7605
 37.9979  38.0924  47.7988  47.8581  48.0811  48.2078  48.9755  76.2286
 84.2869  84.3161  84.3406  84.4012  84.6231  84.6863 103.8715

 Beta MOs
 -- Occupied --
-14.5763 -10.4331  -1.0123  -0.6879  -0.5659  -0.4613  -0.4451
 -- Virtual --
 -0.0146   0.0237   0.0337   0.0351   0.0384   0.0524   0.0621   0.0655
  0.0798   0.0802   0.0978   0.1041   0.1195   0.1197   0.1314   0.1395
  0.1514   0.1523   0.1579   0.1596   0.1624   0.1664   0.1675   0.1763
  0.1881   0.2038   0.2197   0.2308   0.2366   0.2418   0.2533   0.2604
  0.2752   0.2796   0.2836   0.2866   0.2931   0.2960   0.2966   0.3076
  0.3147   0.3218   0.3222   0.3267   0.3327   0.3370   0.3475   0.3565
  0.3579   0.3710   0.3733   0.3857   0.3904   0.4101   0.4160   0.4287
  0.4419   0.4443   0.4514   0.4522   0.4573   0.4644   0.4689   0.4834
  0.4856   0.4881   0.4996   0.5000   0.5009   0.5160   0.5331   0.5434
  0.5481   0.5551   0.5565   0.5575   0.5621   0.5651   0.5770   0.5860
  0.5924   0.5935   0.6047   0.6146   0.6164   0.6180   0.6232   0.6325
  0.6416   0.6624   0.6631   0.6660   0.7018   0.7043   0.7123   0.7165
  0.7345   0.7374   0.7394   0.7423   0.7482   0.7528   0.7578   0.7952
  0.8041   0.8160   0.8180   0.8191   0.8300   0.8470   0.8515   0.8565
  0.8706   0.8707   0.8724   0.8733   0.8768   0.9025   0.9070   0.9116
  0.9125   0.9142   0.9196   0.9215   0.9424   0.9526   0.9566   0.9569
  0.9629   0.9637   0.9672   0.9762   0.9776   0.9820   1.0047   1.0122
  1.0178   1.0193   1.0287   1.0311   1.0384   1.0612   1.0679   1.0883
  1.0910   1.1032   1.1033   1.1308   1.1339   1.1481   1.1579   1.1626
  1.1795   1.2014   1.2105   1.2306   1.2595   1.2719   1.3166   1.3250
  1.3311   1.3320   1.3528   1.3880   1.3895   1.4240   1.4809   1.5104
  1.5683   1.5990   1.6137   1.6284   1.6429   1.6790   1.6955   1.6968
  1.7387   1.7544   1.7671   1.7808   1.8183   1.8276   1.8677   1.8762
  1.8907   1.9017   1.9204   1.9727   1.9990   2.0146   2.0239   2.0663
  2.2013   2.2239   2.2477   2.2654   2.2692   2.2855   2.3347   2.3628
  2.4137   2.4279   2.4369   2.4884   2.5243   2.5890   2.5953   2.6051
  2.7689   2.7697   2.8685   2.8868   3.0186   3.1154   3.1477   3.1826
  3.2720   3.2834   3.3025   3.3173   3.3856   3.4424   3.4743   3.5175
  3.5390   3.5970   3.6209   3.6274   3.7403   3.7516   3.7658   3.8124
  3.8555   3.8583   3.9178   3.9917   4.0242   4.0471   4.1131   4.1468
  4.1941   4.2345   4.3012   4.3064   4.4128   4.4978   4.5310   4.5374
  4.5434   4.5438   4.5810   4.6705   4.6985   4.7068   4.7265   4.7364
  4.7681   4.8668   4.9218   4.9258   4.9507   5.0846   5.1019   5.1118
  5.1723   5.2108   5.3166   5.3491   5.4053   5.4211   5.4659   5.5625
  5.6232   5.7253   5.7547   5.8933   5.9088   6.0693   6.0797   6.1356
  6.1885   6.2920   6.3484   6.3724   6.4359   6.5193   6.5331   6.7314
  6.8179   6.8849   6.9092   6.9280   6.9740   6.9895   7.1465   7.3074
  7.3629   7.4274   7.6217   7.7746   7.7996   8.1453   8.2772   8.3079
  8.3303   8.3471   8.7171   8.8877   8.8967   8.9132   8.9197   9.0179
  9.0438   9.2090   9.2311   9.3668   9.4335   9.6562   9.7227   9.8535
  9.9611  10.1328  10.4013  10.4553  10.5118  10.5118  10.5779  10.6572
 10.7206  10.7360  10.8363  10.8655  10.8939  11.2643  11.2747  11.2765
 11.3358  11.3983  11.4201  11.4237  11.4348  11.4660  11.4673  11.4898
 11.5036  11.5286  11.5720  11.6758  11.7709  11.8010  11.9100  12.0094
 12.0889  12.1541  12.1977  12.2290  12.2641  12.2865  12.3002  12.3103
 12.3238  12.4998  12.5705  12.5951  12.7090  12.8423  13.0579  13.0748
 13.0934  13.1658  13.1828  13.1972  13.3642  13.3716  13.5186  13.5906
 13.9118  13.9919  14.2029  14.3111  14.3165  14.4934  14.5053  14.5310
 14.5581  14.7395  14.7420  15.0477  15.1263  15.2166  15.4739  15.5471
 15.5909  15.6732  15.9967  16.1905  16.4222  16.4338  16.4355  16.4493
 16.5349  16.8104  16.8112  16.8222  16.8895  17.0711  17.0788  17.2734
 17.3892  17.4726  17.8839  17.9294  18.0686  18.1646  18.2558  18.4904
 18.8712  18.9419  19.3276  19.4604  19.7903  19.8800  19.9876  20.5859
 21.4493  21.4944  22.1609  22.2066  22.3766  22.6350  23.8465  24.2204
 24.3116  26.3660  26.6682  28.1123  32.4156  32.9778  33.5025  34.3842
 34.7466  37.9456  38.0421  47.9324  47.9331  48.0747  48.3078  49.0066
 76.2224  84.1508  84.1540  84.1802  84.2073  84.4471  84.5051 103.9098
 --------------------------------------------------------------

          Ground-State Mulliken Net Atomic Charges

     Atom                 Charge (a.u.)    Spin (a.u.)
  --------------------------------------------------------
      1 C                    -0.717846      -0.104238
      2 N                    -0.058590       0.736481
      3 H                     0.388218       0.183878
      4 H                     0.388218       0.183878
  --------------------------------------------------------
  Sum of atomic charges =     0.000000
  Sum of spin   charges =     1.000000

 -----------------------------------------------------------------
                    Cartesian Multipole Moments
 -----------------------------------------------------------------
    Charge (ESU x 10^10)
                -0.0000
    Dipole Moment (Debye)
         X      -0.0000      Y       0.0000      Z      -2.4868
       Tot       2.4868
    Quadrupole Moments (Debye-Ang)
        XX     -12.8052     XY      -0.0000     YY     -11.0735
        XZ       0.0000     YZ      -0.0000     ZZ     -12.9409
    Octopole Moments (Debye-Ang^2)
       XXX      -0.0000    XXY      -0.0000    XYY      -0.0000
       YYY       0.0000    XXZ      -0.1935    XYZ      -0.0000
       YYZ      -1.7517    XZZ      -0.0000    YZZ       0.0000
       ZZZ      -3.9211
    Hexadecapole Moments (Debye-Ang^3)
      XXXX     -13.2260   XXXY      -0.0000   XXYY      -5.5943
      XYYY      -0.0000   YYYY     -17.7762   XXXZ       0.0000
      XXYZ      -0.0000   XYYZ       0.0000   YYYZ      -0.0000
      XXZZ     -10.5284   XYZZ       0.0000   YYZZ     -10.0519
      XZZZ       0.0000   YZZZ       0.0000   ZZZZ     -50.9661
 -----------------------------------------------------------------
Archival summary:
1\1\n0032.mhg0\SP\ProcedureUnspecified\BasisUnspecified\112(2)\yhljason\MonAug2423:31:402020MonAug2423:31:402020\0\\#,ProcedureUnspecified,BasisUnspecified,\\0,2\C\H,1,1.0926\H,1,1.0926,2,117.526\N,1,1.2132,2,121.237,3,-180,0\\\@

 Total job time:  58573.54s(wall), 462838.83s(cpu) 
 Mon Aug 24 23:31:40 2020

        *************************************************************
        *                                                           *
        *  Thank you very much for using Q-Chem.  Have a nice day.  *
        *                                                           *
        *************************************************************


