                  Welcome to Q-Chem
     A Quantum Leap Into The Future Of Chemistry


 Q-Chem 5.3 (devel), Q-Chem, Inc., Pleasanton, CA (2020)

 Yihan Shao,  Zhengting Gan,  E. Epifanovsky,  A. T. B. Gilbert,  M. Wormit,  
 J. Kussmann,  A. W. Lange,  A. Behn,  Jia Deng,  Xintian Feng,  D. Ghosh,  
 M. Goldey,  P. R. Horn,  L. D. Jacobson,  I. Kaliman,  T. Kus,  A. Landau,  
 Jie Liu,  E. I. Proynov,  R. M. Richard,  R. P. Steele,  E. J. Sundstrom,  
 H. L. Woodcock III,  P. M. Zimmerman,  D. Zuev,  B. Alam,  B. Albrecht,  
 E. Alguire,  S. A. Baeppler,  D. Barton,  Z. Benda,  Y. A. Bernard,  
 E. J. Berquist,  K. B. Bravaya,  H. Burton,  K. Carter-Fenk,  D. Casanova,  
 Chun-Min Chang,  Yunqing Chen,  A. Chien,  K. D. Closser,  M. P. Coons,  
 S. Coriani,  S. Dasgupta,  A. L. Dempwolff,  M. Diedenhofen,  Hainam Do,  
 R. G. Edgar,  Po-Tung Fang,  S. Faraji,  S. Fatehi,  Qingguo Feng,  
 J. Fosso-Tande,  J. Gayvert,  Qinghui Ge,  A. Ghysels,  G. Gidofalvi,  
 J. Gomes,  J. Gonthier,  A. Gunina,  D. Hait,  M. W. D. Hanson-Heine,  
 P. H. P. Harbach,  A. W. Hauser,  M. F. Herbst,  J. E. Herr,  
 E. G. Hohenstein,  Z. C. Holden,  Kerwin Hui,  B. C. Huynh,  T.-C. Jagau,  
 Hyunjun Ji,  B. Kaduk,  K. Khistyaev,  Jaehoon Kim,  P. Klunzinger,  K. Koh,  
 D. Kosenkov,  L. Koulias,  T. Kowalczyk,  C. M. Krauter,  A. Kunitsa,  
 Ka Un Lao,  A. Laurent,  K. V. Lawler,  Joonho Lee,  D. Lefrancois,  
 S. Lehtola,  D. S. Levine,  Yi-Pei Li,  You-Sheng Lin,  Fenglai Liu,  
 Kuan-Yu Liu,  E. Livshits,  M. Loipersberger,  A. Luenser,  P. Manohar,  
 E. Mansoor,  S. F. Manzer,  Shan-Ping Mao,  Yuezhi Mao,  N. Mardirossian,  
 A. V. Marenich,  T. Markovich,  L. A. Martinez-Martinez,  S. A. Maurer,  
 N. J. Mayhall,  S. C. McKenzie,  J.-M. Mewes,  P. Morgante,  A. F. Morrison,  
 J. W. Mullinax,  K. Nanda,  T. S. Nguyen-Beck,  R. Olivares-Amaya,  
 K. J. Oosterbaan,  J. A. Parkhill,  S. K. Paul,  F. Pavosevic,  Zheng Pei,  
 T. M. Perrine,  F. Plasser,  P. Pokhilko,  S. Prager,  A. Prociuk,  
 E. Ramos,  B. Rana,  D. R. Rehn,  F. Rob,  M. Scheurer,  M. Schneider,  
 N. Sergueev,  S. M. Sharada,  S. Sharma,  D. W. Small,  T. Stauch,  
 C. J. Stein,  T. Stein,  Yu-Chuan Su,  S. P. Veccham,  Zhen Tao,  
 A. J. W. Thom,  A. Tkatchenko,  T. Tsuchimochi,  N. M. Tubman,  L. Vogt,  
 M. L. Vidal,  O. Vydrov,  M. A. Watson,  J. Wenzel,  M. de Wergifosse,  
 T. A. Wesolowski,  A. White,  J. Witte,  A. Yamada,  Jun Yang,  K. Yao,  
 S. Yeganeh,  S. R. Yost,  Zhi-Qiang You,  A. Zech,  Igor Ying Zhang,  
 Xing Zhang,  Yan Zhao,  Ying Zhu,  B. R. Brooks,  G. K. L. Chan,  
 C. J. Cramer,  M. S. Gordon,  W. J. Hehre,  A. Klamt,  M. W. Schmidt,  
 C. D. Sherrill,  D. G. Truhlar,  A. Aspuru-Guzik,  R. Baer,  A. T. Bell,  
 N. A. Besley,  Jeng-Da Chai,  A. E. DePrince, III,  R. A. DiStasio Jr.,  
 A. Dreuw,  B. D. Dunietz,  T. R. Furlani,  Chao-Ping Hsu,  Yousung Jung,  
 Jing Kong,  D. S. Lambrecht,  WanZhen Liang,  C. Ochsenfeld,  
 V. A. Rassolov,  L. V. Slipchenko,  J. E. Subotnik,  T. Van Voorhis,  
 J. M. Herbert,  A. I. Krylov,  P. M. W. Gill,  M. Head-Gordon

 Contributors to earlier versions of Q-Chem not listed above: 
 R. D. Adamson,  B. Austin,  J. Baker,  G. J. O. Beran,  K. Brandhorst,  
 S. T. Brown,  E. F. C. Byrd,  A. K. Chakraborty,  C.-L. Cheng,  
 Siu Hung Chien,  D. M. Chipman,  D. L. Crittenden,  H. Dachsel,  
 R. J. Doerksen,  A. D. Dutoi,  L. Fusti-Molnar,  W. A. Goddard III,  
 A. Golubeva-Zadorozhnaya,  S. R. Gwaltney,  G. Hawkins,  A. Heyden,  
 S. Hirata,  G. Kedziora,  F. J. Keil,  C. Kelley,  Jihan Kim,  R. A. King,  
 R. Z. Khaliullin,  P. P. Korambath,  W. Kurlancheek,  A. M. Lee,  M. S. Lee,  
 S. V. Levchenko,  Ching Yeh Lin,  D. Liotard,  R. C. Lochan,  I. Lotan,  
 P. E. Maslen,  N. Nair,  D. P. O'Neill,  D. Neuhauser,  E. Neuscamman,  
 C. M. Oana,  R. Olson,  B. Peters,  R. Peverati,  P. A. Pieniazek,  
 Y. M. Rhee,  J. Ritchie,  M. A. Rohrdanz,  E. Rosta,  N. J. Russ,  
 H. F. Schaefer III,  N. E. Schultz,  N. Shenvi,  A. C. Simmonett,  A. Sodt,  
 D. Stuck,  K. S. Thanthiriwatte,  V. Vanovschi,  Tao Wang,  A. Warshel,  
 C. F. Williams,  Q. Wu,  X. Xu,  W. Zhang

 Please cite Q-Chem as follows:
 Y. Shao et al., Mol. Phys. 113, 184-215 (2015)
 DOI: 10.1080/00268976.2014.952696

 Q-Chem 5.3.0 for Intel X86 EM64T Linux

 Parts of Q-Chem use Armadillo 9.800.1 (Horizon Scraper).
 http://arma.sourceforge.net/

 Q-Chem begins on Mon Aug 24 10:00:43 2020  

n0079.mhg0
Host: 0

     Scratch files written to /local/scratch/users/yhljason/HF_TPSSh_aug-pc-4.inp20200824000349//
Processing $rem in /clusterfs/mhg/diptarka/qchem_transmom//config/preferences:
Processing $rem in /global/home/users/yhljason/.qchemrc:

Checking the input file for inconsistencies... 	...done.

--------------------------------------------------------------
User input:
--------------------------------------------------------------
$molecule
0 1
F       0.0000  0.0000  0.0000
H       0.0000  0.0000  0.9168
$end

$rem
jobtype sp
method TPSSh
xc_grid 000099000590
basis aug-pc-4
max_scf_cycles 200
thresh 14
scf_convergence 8
scf_algorithm gdm
symmetry false
sym_ignore true
unrestricted true
gen_scfman true
internal_stability_iter 15
internal_stability_davidson_iter 200
mem_total 64000
mem_static 1500
n_frozen_core 0
$end


--------------------------------------------------------------
 ----------------------------------------------------------------
             Standard Nuclear Orientation (Angstroms)
    I     Atom           X                Y                Z
 ----------------------------------------------------------------
    1      F       0.0000000000     0.0000000000     0.0000000000
    2      H       0.0000000000     0.0000000000     0.9168000000
 ----------------------------------------------------------------
 Nuclear Repulsion Energy =           5.19480246 hartrees
 There are        5 alpha and        5 beta electrons
 Requested basis set is aug-pc-4
 There are 57 shells and 233 basis functions

 Total QAlloc Memory Limit  64000 MB
 Mega-Array Size      1467 MB
 MEM_STATIC part      1500 MB

                       Distance Matrix (Angstroms)
             F (  1)
   H (  2)  0.916800

 A cutoff of  1.0D-14 yielded   1652 shell pairs
 There are     27850 function pairs (     51237 Cartesian)
 Smallest overlap matrix eigenvalue = 1.12E-05

 Scale SEOQF with 1.000000e-01/1.000000e-01/1.000000e-01

 Standard Electronic Orientation quadrupole field applied
 Guess from superposition of atomic densities
 Warning:  Energy on first SCF cycle will be non-variational
 SAD guess density has 10.000000 electrons

 -----------------------------------------------------------------------
  General SCF calculation program by
  Eric Jon Sundstrom, Paul Horn, Yuezhi Mao, Dmitri Zuev, Alec White,
  David Stuck, Shaama M.S., Shane Yost, Joonho Lee, David Small,
  Daniel Levine, Susi Lehtola, Hugh Burton, Evgeny Epifanovsky,
  Bang C. Huynh
 -----------------------------------------------------------------------
 Exchange:     0.1000 Hartree-Fock + 0.9000 TPSS
 Correlation:  1.0000 TPSS
 Using Euler-Maclaurin-Lebedev (99,590) quadrature formula
Running Object-Oriented UKS (UHF)
performing a single roothaan step with Fock from read density so that orbitals are available to all algorithms
energy of the guess density (C=0) -100.445556755460
We will preform up to 15 macro iterations over saddle points until a stable solution is found
Energy prior to optimization (guess energy) = -100.461563839772
Begin Timing: Total SCF Calculation
Begin Timing: SCF Single Stationary Point Calculation
begin iterations for algorithm: GDM          
the SCF tolerance is set to 1.00e-08
    1    -100.4615638398      6.15e-02     00000  Descent step
    2    -100.4434538665      6.94e-02     00000 Line search: overstep
    3    -100.4911645460      6.66e-03     00000  Normal BFGS step
    4    -100.4915868705      1.88e-03     00000  Normal BFGS step
    5    -100.4916376919      1.84e-04     00000  Normal BFGS step
    6    -100.4916383433      3.45e-05     00000  Normal BFGS step
    7    -100.4916383651      1.54e-06     00000  Normal BFGS step
    8    -100.4916383651      1.03e-07     00000  Normal BFGS step
    9    -100.4916383651      1.89e-08     00000  Normal BFGS step
   10    -100.4916383651      2.38e-08     00000  Normal BFGS step
   11    -100.4916383651      2.01e-10     00000 Convergence criterion met
Timing for Single Stationary Point: 324.00s (wall), 2489.47s (cpu)
Begin Timing: Stability
===================================================
Beginning Test for Internal Stability
===================================================
generating davidson guess vectors based on koopmans excitations
 Warning: Hessian-vector products not implemented
 Finite difference Hessian-vector products will be used.
computing hessian-vector products by finite difference
    1      5.38e-01     00000 Davidson Iteration
computing hessian-vector products by finite difference
    2      4.69e-01     00000 Davidson Iteration
computing hessian-vector products by finite difference
    3      1.32e-01     00000 Davidson Iteration
computing hessian-vector products by finite difference
    4      2.06e-02     00000 Davidson Iteration
computing hessian-vector products by finite difference
    5      1.68e-03     00000 Davidson Iteration
computing hessian-vector products by finite difference
    6      5.00e-04     00000 Davidson Iteration
computing hessian-vector products by finite difference
    7      5.75e-05     00000 Davidson Iteration
computing hessian-vector products by finite difference
    8      4.28e-05     00000 Davidson Converged
converged_eigenvalues
   0.6415
   0.6415
Threshold for negative eigenvalues: -1.0e-05
solution was a local minimum (stable)
===================================================
End Test for Internal Stability
===================================================
Timing for Internal Stability: 1194.00s (wall), 9176.41s (cpu)
Our SCF solution is stable!
Timing for Total SCF: 1518.00s (wall), 11665.95s (cpu)
 Total energy in the final basis set =     -100.4916383651
<S^2> =         -0.000000000
    ==================================================
              The end of Object-Oriented SCFman       
    ==================================================

 --------------------------------------------------------------

                    Orbital Energies (a.u.)
 --------------------------------------------------------------

 Alpha MOs
 -- Occupied --
-24.5926  -1.1797  -0.5307  -0.3907  -0.3907
 -- Virtual --
 -0.0219   0.0418   0.0468   0.0468   0.0477   0.1002   0.1071   0.1071
  0.1475   0.1475   0.1619   0.1915   0.1915   0.1944   0.2498   0.2752
  0.2804   0.2804   0.2941   0.2941   0.2949   0.2949   0.2984   0.2984
  0.3742   0.3880   0.3880   0.3948   0.3966   0.3966   0.4832   0.4832
  0.4916   0.4916   0.4995   0.4995   0.5223   0.5488   0.5488   0.5610
  0.6059   0.6059   0.6402   0.6591   0.6591   0.6640   0.6640   0.7285
  0.7285   0.7450   0.8362   0.8499   0.8499   0.8633   0.8633   0.9114
  0.9114   0.9265   0.9265   0.9278   0.9603   0.9603   0.9643   0.9643
  1.0697   1.1766   1.1766   1.1921   1.1921   1.2123   1.2588   1.2588
  1.2676   1.2676   1.2774   1.2843   1.2843   1.2855   1.2855   1.4695
  1.4695   1.4721   1.4721   1.6003   1.7910   1.8401   1.8401   1.9877
  2.1787   2.2275   2.2275   2.2334   2.2334   2.3663   2.3663   2.4704
  2.6518   2.6518   2.7651   2.7651   3.0484   3.1830   3.1830   3.2724
  3.2724   3.4066   3.4066   3.4166   3.7252   3.9001   3.9001   3.9814
  3.9814   4.1645   4.5230   4.5230   4.8100   5.2777   5.2777   5.2935
  5.2935   5.5180   5.5180   5.6864   5.7106   6.1546   6.2484   6.2484
  6.2862   6.2862   6.5844   6.5844   7.0166   7.1173   7.1173   7.2955
  7.2955   7.5646   7.5646   7.7830   8.3837   8.3837   8.4979   8.4979
  8.7498   8.7498   8.7808   9.2182   9.2182  10.5949  10.8916  10.8916
 11.6024  11.8236  12.2509  12.2509  12.2529  12.2529  12.4971  12.4971
 12.5957  12.5957  12.9364  12.9364  12.9986  12.9986  13.3375  13.3375
 13.7885  13.9231  13.9231  14.4493  14.6132  14.6132  14.9434  14.9680
 14.9680  15.2550  15.2550  15.7614  15.7614  15.8053  15.8053  16.3580
 17.0810  17.0810  17.3401  18.2562  18.2562  18.6775  18.6775  19.0225
 19.8347  19.8347  20.5240  20.5240  20.7000  20.7000  20.7925  20.7925
 21.3069  21.3069  21.8585  23.2497  23.2497  23.3752  24.9101  24.9101
 29.4894  30.6242  30.6243  31.2142  31.2142  34.9213  42.0338  42.0338
 42.1092  42.7930  45.8289  91.6611  91.6611  92.0021  92.0021  94.0041
 95.0608  95.0608  98.5787 204.5887

 Beta MOs
 -- Occupied --
-24.5926  -1.1797  -0.5307  -0.3907  -0.3907
 -- Virtual --
 -0.0219   0.0418   0.0468   0.0468   0.0477   0.1002   0.1071   0.1071
  0.1475   0.1475   0.1619   0.1915   0.1915   0.1944   0.2498   0.2752
  0.2804   0.2804   0.2941   0.2941   0.2949   0.2949   0.2984   0.2984
  0.3742   0.3880   0.3880   0.3948   0.3966   0.3966   0.4832   0.4832
  0.4916   0.4916   0.4995   0.4995   0.5223   0.5488   0.5488   0.5610
  0.6059   0.6059   0.6402   0.6591   0.6591   0.6640   0.6640   0.7285
  0.7285   0.7450   0.8362   0.8499   0.8499   0.8633   0.8633   0.9114
  0.9114   0.9265   0.9265   0.9278   0.9603   0.9603   0.9643   0.9643
  1.0697   1.1766   1.1766   1.1921   1.1921   1.2123   1.2588   1.2588
  1.2676   1.2676   1.2774   1.2843   1.2843   1.2855   1.2855   1.4695
  1.4695   1.4721   1.4721   1.6003   1.7910   1.8401   1.8401   1.9877
  2.1787   2.2275   2.2275   2.2334   2.2334   2.3663   2.3663   2.4704
  2.6518   2.6518   2.7651   2.7651   3.0484   3.1830   3.1830   3.2724
  3.2724   3.4066   3.4066   3.4166   3.7252   3.9001   3.9001   3.9814
  3.9814   4.1645   4.5230   4.5230   4.8100   5.2777   5.2777   5.2935
  5.2935   5.5180   5.5180   5.6864   5.7106   6.1546   6.2484   6.2484
  6.2862   6.2862   6.5844   6.5844   7.0166   7.1173   7.1173   7.2955
  7.2955   7.5646   7.5646   7.7830   8.3837   8.3837   8.4979   8.4979
  8.7498   8.7498   8.7808   9.2182   9.2182  10.5949  10.8916  10.8916
 11.6024  11.8236  12.2509  12.2509  12.2529  12.2529  12.4971  12.4971
 12.5957  12.5957  12.9364  12.9364  12.9986  12.9986  13.3375  13.3375
 13.7885  13.9231  13.9231  14.4493  14.6132  14.6132  14.9434  14.9680
 14.9680  15.2550  15.2550  15.7614  15.7614  15.8053  15.8053  16.3580
 17.0810  17.0810  17.3401  18.2562  18.2562  18.6775  18.6775  19.0225
 19.8347  19.8347  20.5240  20.5240  20.7000  20.7000  20.7925  20.7925
 21.3069  21.3069  21.8585  23.2497  23.2497  23.3752  24.9101  24.9101
 29.4894  30.6242  30.6243  31.2142  31.2142  34.9213  42.0338  42.0338
 42.1092  42.7930  45.8289  91.6611  91.6611  92.0021  92.0021  94.0041
 95.0608  95.0608  98.5787 204.5887
 --------------------------------------------------------------

          Ground-State Mulliken Net Atomic Charges

     Atom                 Charge (a.u.)    Spin (a.u.)
  --------------------------------------------------------
      1 F                    -0.056552       0.000000
      2 H                     0.056552      -0.000000
  --------------------------------------------------------
  Sum of atomic charges =    -0.000000
  Sum of spin   charges =    -0.000000

 -----------------------------------------------------------------
                    Cartesian Multipole Moments
 -----------------------------------------------------------------
    Charge (ESU x 10^10)
                -0.0000
    Dipole Moment (Debye)
         X       0.0000      Y       0.0000      Z       1.7747
       Tot       1.7747
    Quadrupole Moments (Debye-Ang)
        XX      -5.8599     XY       0.0000     YY      -5.8599
        XZ       0.0000     YZ      -0.0000     ZZ      -3.4349
    Octopole Moments (Debye-Ang^2)
       XXX      -0.0000    XXY       0.0000    XYY      -0.0000
       YYY       0.0000    XXZ      -0.4359    XYZ       0.0000
       YYZ      -0.4359    XZZ       0.0000    YZZ       0.0000
       ZZZ       0.7329
    Hexadecapole Moments (Debye-Ang^3)
      XXXX      -4.3173   XXXY       0.0000   XXYY      -1.4391
      XYYY       0.0000   YYYY      -4.3173   XXXZ       0.0000
      XXYZ      -0.0000   XYYZ       0.0000   YYYZ      -0.0000
      XXZZ      -1.6253   XYZZ       0.0000   YYZZ      -1.6253
      XZZZ       0.0000   YZZZ      -0.0000   ZZZZ      -3.3284
 -----------------------------------------------------------------
Archival summary:
1\1\n0079.mhg0\SP\ProcedureUnspecified\BasisUnspecified\11\yhljason\MonAug2410:27:052020MonAug2410:27:052020\0\\#,ProcedureUnspecified,BasisUnspecified,\\0,1\F\H,1,0.9168\\\@

 Total job time:  1581.77s(wall), 12144.68s(cpu) 
 Mon Aug 24 10:27:05 2020

        *************************************************************
        *                                                           *
        *  Thank you very much for using Q-Chem.  Have a nice day.  *
        *                                                           *
        *************************************************************


