Q-Chem Developer Version!
                  Welcome to Q-Chem
     A Quantum Leap Into The Future Of Chemistry


 Q-Chem 5.1, Q-Chem, Inc., Pleasanton, CA (2018)

 Yihan Shao,  Zhengting Gan,  E. Epifanovsky,  A. T. B. Gilbert,  M. Wormit,  
 J. Kussmann,  A. W. Lange,  A. Behn,  Jia Deng,  Xintian Feng,  D. Ghosh,  
 M. Goldey,  P. R. Horn,  L. D. Jacobson,  I. Kaliman,  T. Kus,  A. Landau,  
 Jie Liu,  E. I. Proynov,  R. M. Richard,  R. P. Steele,  E. J. Sundstrom,  
 H. L. Woodcock III,  P. M. Zimmerman,  D. Zuev,  B. Albrecht,  E. Alguire,  
 S. A. Baeppler,  D. Barton,  Z. Benda,  Y. A. Bernard,  E. J. Berquist,  
 K. B. Bravaya,  H. Burton,  D. Casanova,  Chun-Min Chang,  Yunqing Chen,  
 A. Chien,  K. D. Closser,  M. P. Coons,  S. Coriani,  S. Dasgupta,  
 A. L. Dempwolff,  M. Diedenhofen,  Hainam Do,  R. G. Edgar,  Po-Tung Fang,  
 S. Faraji,  S. Fatehi,  Qingguo Feng,  K. D. Fenk,  J. Fosso-Tande,  
 Qinghui Ge,  A. Ghysels,  G. Gidofalvi,  J. Gomes,  J. Gonthier,  A. Gunina,  
 D. Hait,  M. W. D. Hanson-Heine,  P. H. P. Harbach,  A. W. Hauser,  
 J. E. Herr,  E. G. Hohenstein,  Z. C. Holden,  Kerwin Hui,  B. C. Huynh,  
 T.-C. Jagau,  Hyunjun Ji,  B. Kaduk,  K. Khistyaev,  Jaehoon Kim,  
 P. Klunzinger,  K. Koh,  D. Kosenkov,  L. Koulias,  T. Kowalczyk,  
 C. M. Krauter,  A. Kunitsa,  Ka Un Lao,  A. Laurent,  K. V. Lawler,  
 Joonho Lee,  D. Lefrancois,  S. Lehtola,  D. S. Levine,  Yi-Pei Li,  
 You-Sheng Lin,  Fenglai Liu,  E. Livshits,  A. Luenser,  P. Manohar,  
 E. Mansoor,  S. F. Manzer,  Shan-Ping Mao,  Yuezhi Mao,  N. Mardirossian,  
 A. V. Marenich,  T. Markovich,  L. A. Martinez-Martinez,  S. A. Maurer,  
 N. J. Mayhall,  S. C. McKenzie,  J.-M. Mewes,  A. F. Morrison,  
 J. W. Mullinax,  K. Nanda,  T. S. Nguyen-Beck,  R. Olivares-Amaya,  
 J. A. Parkhill,  T. M. Perrine,  F. Plasser,  P. Pokhilko,  S. Prager,  
 A. Prociuk,  E. Ramos,  D. R. Rehn,  F. Rob,  M. Schneider,  N. Sergueev,  
 S. M. Sharada,  S. Sharma,  D. W. Small,  T. Stauch,  T. Stein,  
 Yu-Chuan Su,  A. J. W. Thom,  A. Tkatchenko,  T. Tsuchimochi,  N. M. Tubman,  
 L. Vogt,  M. L. Vidal,  O. Vydrov,  M. A. Watson,  J. Wenzel,  
 M. de Wergifosse,  T. A. Wesolowski,  A. White,  J. Witte,  A. Yamada,  
 Jun Yang,  K. Yao,  S. Yeganeh,  S. R. Yost,  Zhi-Qiang You,  A. Zech,  
 Igor Ying Zhang,  Xing Zhang,  Yan Zhao,  Ying Zhu,  B. R. Brooks,  
 G. K. L. Chan,  C. J. Cramer,  M. S. Gordon,  W. J. Hehre,  A. Klamt,  
 M. W. Schmidt,  C. D. Sherrill,  D. G. Truhlar,  A. Aspuru-Guzik,  R. Baer,  
 A. T. Bell,  N. A. Besley,  Jeng-Da Chai,  A. E. DePrince, III,  
 R. A. DiStasio Jr.,  A. Dreuw,  B. D. Dunietz,  T. R. Furlani,  
 Chao-Ping Hsu,  Yousung Jung,  Jing Kong,  D. S. Lambrecht,  WanZhen Liang,  
 C. Ochsenfeld,  V. A. Rassolov,  L. V. Slipchenko,  J. E. Subotnik,  
 T. Van Voorhis,  J. M. Herbert,  A. I. Krylov,  P. M. W. Gill,  M. Head-Gordon

 Contributors to earlier versions of Q-Chem not listed above: 
 R. D. Adamson,  B. Austin,  J. Baker,  G. J. O. Beran,  K. Brandhorst,  
 S. T. Brown,  E. F. C. Byrd,  A. K. Chakraborty,  C.-L. Cheng,  
 Siu Hung Chien,  D. M. Chipman,  D. L. Crittenden,  H. Dachsel,  
 R. J. Doerksen,  A. D. Dutoi,  L. Fusti-Molnar,  W. A. Goddard III,  
 A. Golubeva-Zadorozhnaya,  S. R. Gwaltney,  G. Hawkins,  A. Heyden,  
 S. Hirata,  G. Kedziora,  F. J. Keil,  C. Kelley,  Jihan Kim,  R. A. King,  
 R. Z. Khaliullin,  P. P. Korambath,  W. Kurlancheek,  A. M. Lee,  M. S. Lee,  
 S. V. Levchenko,  Ching Yeh Lin,  D. Liotard,  R. C. Lochan,  I. Lotan,  
 P. E. Maslen,  N. Nair,  D. P. O'Neill,  D. Neuhauser,  E. Neuscamman,  
 C. M. Oana,  R. Olson,  B. Peters,  R. Peverati,  P. A. Pieniazek,  
 Y. M. Rhee,  J. Ritchie,  M. A. Rohrdanz,  E. Rosta,  N. J. Russ,  
 H. F. Schaefer III,  N. E. Schultz,  N. Shenvi,  A. C. Simmonett,  A. Sodt,  
 D. Stuck,  K. S. Thanthiriwatte,  V. Vanovschi,  Tao Wang,  A. Warshel,  
 C. F. Williams,  Q. Wu,  X. Xu,  W. Zhang

 Please cite Q-Chem as follows:
 Y. Shao et al., Mol. Phys. 113, 184-215 (2015)
 DOI: 10.1080/00268976.2014.952696

 Q-Chem 5.1.1 for Intel X86 EM64T Linux

 Parts of Q-Chem use Armadillo 8.300.2 (Tropical Shenanigans).
 http://arma.sourceforge.net/

 Q-Chem begins on Fri Oct 30 13:26:36 2020  

Host: n0048.mhg0
0

     Scratch files written to /local/scratch/users/yhljason/BH2F_LRC-wPBEh_aug-pc-4.inp20201030131737//
Input Ideriv = 2
Curr. Ideriv = -1
Max.  Ideriv = 2

Checking the input file for inconsistencies... 	...done.

--------------------------------------------------------------
User input:
--------------------------------------------------------------
$molecule
0 1
B        0.0000000000      0.0000000000      0.0000000000
F        0.0000000000      0.0000000000      1.3157000000
H        0.0000000000      1.0599000000     -0.5569000000
H        0.0000000000     -1.0599000000     -0.5569000000
$end

$rem
jobtype sp
method LRC-wPBEh
xc_grid 000099000590
basis aug-pc-4
max_scf_cycles 200
thresh 14
scf_convergence 8
scf_algorithm gdm
symmetry false
sym_ignore true
unrestricted True
gen_scfman true
internal_stability_iter 15
internal_stability_davidson_iter 200
mem_total 64000
mem_static 1500
n_frozen_core 0
$end



--------------------------------------------------------------
 ----------------------------------------------------------------
             Standard Nuclear Orientation (Angstroms)
    I     Atom           X                Y                Z
 ----------------------------------------------------------------
    1      B       0.0000000000     0.0000000000     0.0000000000
    2      F       0.0000000000     0.0000000000     1.3157000000
    3      H       0.0000000000     1.0599000000    -0.5569000000
    4      H       0.0000000000    -1.0599000000    -0.5569000000
 ----------------------------------------------------------------
 Nuclear Repulsion Energy =    27.1952060366 hartrees
 There are        8 alpha and        8 beta electrons
 Requested basis set is aug-pc-4
 There are 114 shells and 466 basis functions

 Total QAlloc Memory Limit  64000 MB
 Mega-Array Size      1467 MB
 MEM_STATIC part      1500 MB

                       Distance Matrix (Angstroms)
             B (  1)   F (  2)   H (  3)
   F (  2)  1.315700
   H (  3)  1.197299  2.151748
   H (  4)  1.197299  2.151748  2.119800
 
 A cutoff of  1.0D-14 yielded   6446 shell pairs
 There are    109152 function pairs (    200533 Cartesian)
 
 -------------------------------------------------------
 OpenMP Integral Computing Module                       
 Release: version 1.0, May 2013, Q-Chem Inc. Pittsburgh 
 -------------------------------------------------------
 Integral Job Info:
 Integral job number is                      11
 Integral operator is                         1
 short-range coefficients              20000000
 long-range coefficients              100000000
 Omega coefficients                         200
 if combine SR and LR in K                    1
 Integral screening is                        0
 Integral computing path is                   2
 max size of driver memory is           6400000
 size of driver memory is               5498286
 size of scratch memory is             28955960
 max col of scratch BK array             194481
 max len of scratch array in speh3         5572
 max len of scratch index in speh4           72
 max int batch size is                      520
 min int batch size is                       52
 fixed nKL is                                24
 max L of basis functions is                  5
 order of int derivative is                   0
 number of shells is                        114
 number of basis is                         630
 number of cartesian basis is               630
 number of contracted shell pairs          6446
 number of primitive shell pairs          12398
 maxK2 (contraction) of shell pair          121
 max number of K2 of shell pair               1
 max number of CS2 of shell pair            776
 max number of PS2 of shell pair            776
 mem total for path MDJ                 1105572
 -------------------------------------------------------
 Smallest overlap matrix eigenvalue = 4.44E-07
 Linear dependence detected in AO basis
 Number of orthogonalized atomic orbitals = 464
 Maximum deviation from orthogonality = 1.675E-10

 Scale SEOQF with 1.000000e-01/1.000000e-01/1.000000e-01

 Standard Electronic Orientation quadrupole field applied
 Nucleus-field energy     =    -0.0000000016 hartrees
 Guess from superposition of atomic densities
 Warning:  Energy on first SCF cycle will be non-variational
 SAD guess density has 16.000000 electrons

 -----------------------------------------------------------------------
  General SCF calculation program by
  Eric Jon Sundstrom, Paul Horn, Yuezhi Mao, Dmitri Zuev, Alec White,
  David Stuck, Shaama M.S., Shane Yost, Joonho Lee, David Small,
  Daniel Levine, Susi Lehtola, Hugh Burton, Evgeny Epifanovsky
 -----------------------------------------------------------------------
 Exchange:     0.2000 Hartree-Fock + 0.8000 wPBE + LR-HF
 Correlation:  1.0000 PBE
 Using Euler-Maclaurin-Lebedev (99,590) quadrature formula
Running Object-Oriented UKS (UHF)
performing a single roothaan step with Fock from read density so that orbitals are available to all algorithms
energy of the guess density (C=0) -125.860086443845
We will preform up to 15 macro iterations over saddle points until a stable solution is found
Energy prior to optimization (guess energy) = -125.839817495273
Begin Timing: Total SCF Calculation
Begin Timing: SCF Single Stationary Point Calculation
begin iterations for algorithm: GDM          
the SCF tolerance is set to 1.00e-08
    1    -125.8398174953      7.24e-02     00000  Normal BFGS step
    2    -125.8321189112      9.26e-02     00000 Line search: overstep
    3    -125.8617668593      9.38e-03     00000  Normal BFGS step
    4    -125.8637841752      2.01e-03     00000  Normal BFGS step
    5    -125.8638537505      4.67e-04     00000  Normal BFGS step
    6    -125.8638585733      6.90e-05     00000  Normal BFGS step
    7    -125.8638586578      1.24e-05     00000  Normal BFGS step
    8    -125.8638586603      1.85e-06     00000  Normal BFGS step
    9    -125.8638586604      2.80e-07     00000  Normal BFGS step
   10    -125.8638586604      3.69e-08     00000  Normal BFGS step
   11    -125.8638586604      4.97e-08     00000  Normal BFGS step
   12    -125.8638586604      6.77e-09     00000 Convergence criterion met
Timing for Single Stationary Point: 5485.00s (wall), 43340.54s (cpu)
Begin Timing: Stability
===================================================
Beginning Test for Internal Stability
===================================================
generating davidson guess vectors based on koopmans excitations
    1      5.00e-01     00000 Davidson Iteration
    2      3.82e-01     00000 Davidson Iteration
    3      1.05e-01     00000 Davidson Iteration
    4      1.63e-02     00000 Davidson Iteration
    5      5.82e-03     00000 Davidson Iteration
    6      1.20e-03     00000 Davidson Iteration
    7      1.89e-04     00000 Davidson Iteration
    8      7.82e-05     00000 Davidson Iteration
    9      2.94e-05     00000 Davidson Converged
converged_eigenvalues
   0.3435
   0.4591
Threshold for negative eigenvalues: -1.0e-05
solution was a local minimum (stable)
===================================================
End Test for Internal Stability
===================================================
Our SCF solution is stable!
Timing for Total SCF: 16013.00s (wall), 126878.08s (cpu)
 Total energy in the final basis set =     -125.8638586604
<S^2> =          0.000000000
    ==================================================
              The end of Object-Oriented SCFman       
    ==================================================
 
 --------------------------------------------------------------
 
                    Orbital Energies (a.u.)
 --------------------------------------------------------------
 
 Alpha MOs
 -- Occupied --
-24.776  -6.880  -1.323  -0.662  -0.575  -0.558  -0.540  -0.414
 -- Virtual --
  0.010   0.016   0.018   0.021   0.026   0.046   0.060   0.065
  0.068   0.070   0.071   0.076   0.081   0.082   0.101   0.103
  0.108   0.109   0.133   0.137   0.141   0.144   0.146   0.151
  0.164   0.171   0.172   0.176   0.190   0.190   0.191   0.199
  0.199   0.208   0.221   0.225   0.225   0.230   0.232   0.240
  0.252   0.257   0.266   0.270   0.271   0.296   0.307   0.307
  0.316   0.322   0.328   0.335   0.336   0.338   0.341   0.343
  0.346   0.347   0.351   0.352   0.360   0.362   0.364   0.365
  0.378   0.387   0.414   0.416   0.418   0.421   0.432   0.448
  0.464   0.478   0.480   0.493   0.506   0.513   0.530   0.536
  0.540   0.548   0.556   0.568   0.574   0.574   0.600   0.605
  0.606   0.615   0.624   0.630   0.635   0.639   0.653   0.665
  0.668   0.669   0.674   0.698   0.699   0.699   0.701   0.715
  0.720   0.731   0.736   0.744   0.758   0.761   0.770   0.771
  0.773   0.774   0.790   0.808   0.815   0.817   0.821   0.825
  0.842   0.869   0.873   0.879   0.883   0.891   0.896   0.923
  0.942   0.944   0.955   0.966   0.972   0.976   1.011   1.053
  1.070   1.079   1.098   1.104   1.114   1.125   1.152   1.155
  1.162   1.171   1.179   1.190   1.230   1.244   1.272   1.317
  1.334   1.360   1.363   1.388   1.396   1.402   1.407   1.420
  1.422   1.438   1.467   1.478   1.489   1.490   1.505   1.510
  1.515   1.595   1.596   1.601   1.603   1.648   1.663   1.680
  1.682   1.715   1.743   1.768   1.802   1.812   1.820   1.832
  1.835   1.844   1.921   1.995   2.036   2.058   2.119   2.121
  2.172   2.201   2.209   2.239   2.252   2.460   2.462   2.497
  2.512   2.574   2.599   2.625   2.656   2.698   2.747   2.765
  2.828   2.902   2.955   3.031   3.094   3.181   3.185   3.232
  3.244   3.246   3.321   3.335   3.407   3.414   3.471   3.487
  3.552   3.554   3.590   3.633   3.704   3.738   3.739   3.778
  3.781   3.821   3.946   3.951   3.960   3.976   4.017   4.040
  4.066   4.066   4.089   4.155   4.168   4.259   4.278   4.319
  4.377   4.377   4.464   4.554   4.659   4.672   4.699   4.867
  4.878   4.884   5.053   5.069   5.128   5.202   5.367   5.457
  5.545   5.563   5.621   5.692   5.696   5.725   5.946   5.952
  5.975   6.076   6.079   6.187   6.192   6.325   6.356   6.409
  6.493   6.674   6.782   6.950   7.005   7.027   7.276   7.328
  7.335   7.400   7.616   7.698   7.839   7.844   7.894   8.042
  8.268   8.318   8.516   8.699   8.711   8.771   8.823   8.963
  8.975   8.983   9.010   9.020   9.080   9.102   9.125   9.184
  9.187   9.302   9.382   9.537   9.748   9.810   9.822   9.879
  9.884   9.891   9.915   9.979  10.034  10.035  10.128  10.135
 10.219  10.248  10.559  10.585  10.637  10.774  10.938  11.013
 11.181  11.235  11.285  11.470  11.547  11.715  11.722  11.891
 11.978  12.219  12.226  12.443  12.467  12.565  12.579  12.600
 12.621  12.642  12.868  12.869  12.889  12.899  12.916  12.953
 12.982  13.014  13.067  13.149  13.166  13.243  13.364  13.494
 13.511  13.643  14.011  14.043  14.172  14.341  14.373  14.377
 14.537  14.620  14.799  14.880  15.011  15.050  15.265  15.289
 15.329  15.591  15.707  15.975  16.328  16.456  16.926  16.932
 16.941  16.941  17.085  17.093  17.106  17.173  17.189  17.421
 17.864  17.993  18.150  18.185  18.921  19.313  19.423  19.467
 19.545  19.942  20.042  20.363  20.364  20.549  20.634  20.637
 20.889  21.007  21.255  21.376  22.243  22.252  22.386  22.441
 22.757  23.278  23.648  23.659  23.974  24.042  24.973  25.244
 30.681  30.787  31.064  31.360  32.305  40.965  41.147  42.079
 42.273  42.446  44.745  80.519  91.300  91.302  91.521  91.550
 91.753  91.823  92.000  92.186  92.200  92.414  92.909 203.244
 
 Beta MOs
 -- Occupied --
-24.776  -6.880  -1.323  -0.662  -0.575  -0.558  -0.540  -0.414
 -- Virtual --
  0.010   0.016   0.018   0.021   0.026   0.046   0.060   0.065
  0.068   0.070   0.071   0.076   0.081   0.082   0.101   0.103
  0.108   0.109   0.133   0.137   0.141   0.144   0.146   0.151
  0.164   0.171   0.172   0.176   0.190   0.190   0.191   0.199
  0.199   0.208   0.221   0.225   0.225   0.230   0.232   0.240
  0.252   0.257   0.266   0.270   0.271   0.296   0.307   0.307
  0.316   0.322   0.328   0.335   0.336   0.338   0.341   0.343
  0.346   0.347   0.351   0.352   0.360   0.362   0.364   0.365
  0.378   0.387   0.414   0.416   0.418   0.421   0.432   0.448
  0.464   0.478   0.480   0.493   0.506   0.513   0.530   0.536
  0.540   0.548   0.556   0.568   0.574   0.574   0.600   0.605
  0.606   0.615   0.624   0.630   0.635   0.639   0.653   0.665
  0.668   0.669   0.674   0.698   0.699   0.699   0.701   0.715
  0.720   0.731   0.736   0.744   0.758   0.761   0.770   0.771
  0.773   0.774   0.790   0.808   0.815   0.817   0.821   0.825
  0.842   0.869   0.873   0.879   0.883   0.891   0.896   0.923
  0.942   0.944   0.955   0.966   0.972   0.976   1.011   1.053
  1.070   1.079   1.098   1.104   1.114   1.125   1.152   1.155
  1.162   1.171   1.179   1.190   1.230   1.244   1.272   1.317
  1.334   1.360   1.363   1.388   1.396   1.402   1.407   1.420
  1.422   1.438   1.467   1.478   1.489   1.490   1.505   1.510
  1.515   1.595   1.596   1.601   1.603   1.648   1.663   1.680
  1.682   1.715   1.743   1.768   1.802   1.812   1.820   1.832
  1.835   1.844   1.921   1.995   2.036   2.058   2.119   2.121
  2.172   2.201   2.209   2.239   2.252   2.460   2.462   2.497
  2.512   2.574   2.599   2.625   2.656   2.698   2.747   2.765
  2.828   2.902   2.955   3.031   3.094   3.181   3.185   3.232
  3.244   3.246   3.321   3.335   3.407   3.414   3.471   3.487
  3.552   3.554   3.590   3.633   3.704   3.738   3.739   3.778
  3.781   3.821   3.946   3.951   3.960   3.976   4.017   4.040
  4.066   4.066   4.089   4.155   4.168   4.259   4.278   4.319
  4.377   4.377   4.464   4.554   4.659   4.672   4.699   4.867
  4.878   4.884   5.053   5.069   5.128   5.202   5.367   5.457
  5.545   5.563   5.621   5.692   5.696   5.725   5.946   5.952
  5.975   6.076   6.079   6.187   6.192   6.325   6.356   6.409
  6.493   6.674   6.782   6.950   7.005   7.027   7.276   7.328
  7.335   7.400   7.616   7.698   7.839   7.844   7.894   8.042
  8.268   8.318   8.516   8.699   8.711   8.771   8.823   8.963
  8.975   8.983   9.010   9.020   9.080   9.102   9.125   9.184
  9.187   9.302   9.382   9.537   9.748   9.810   9.822   9.879
  9.884   9.891   9.915   9.979  10.034  10.035  10.128  10.135
 10.219  10.248  10.559  10.585  10.637  10.774  10.938  11.013
 11.181  11.235  11.285  11.470  11.547  11.715  11.722  11.891
 11.978  12.219  12.226  12.443  12.467  12.565  12.579  12.600
 12.621  12.642  12.868  12.869  12.889  12.899  12.916  12.953
 12.982  13.014  13.067  13.149  13.166  13.243  13.364  13.494
 13.511  13.643  14.011  14.043  14.172  14.341  14.373  14.377
 14.537  14.620  14.799  14.880  15.011  15.050  15.265  15.289
 15.329  15.591  15.707  15.975  16.328  16.456  16.926  16.932
 16.941  16.941  17.085  17.093  17.106  17.173  17.189  17.421
 17.864  17.993  18.150  18.185  18.921  19.313  19.423  19.467
 19.545  19.942  20.042  20.363  20.364  20.549  20.634  20.637
 20.889  21.007  21.255  21.376  22.243  22.252  22.386  22.441
 22.757  23.278  23.648  23.659  23.974  24.042  24.973  25.244
 30.681  30.787  31.064  31.360  32.305  40.965  41.147  42.079
 42.273  42.446  44.745  80.519  91.300  91.302  91.521  91.550
 91.753  91.823  92.000  92.186  92.200  92.414  92.909 203.244
 --------------------------------------------------------------
 
          Ground-State Mulliken Net Atomic Charges

     Atom                 Charge (a.u.)    Spin (a.u.)
  --------------------------------------------------------
      1 B                     0.155868       0.000000
      2 F                    -0.250811       0.000000
      3 H                     0.047472      -0.000000
      4 H                     0.047472      -0.000000
  --------------------------------------------------------
  Sum of atomic charges =     0.000000
  Sum of spin   charges =     0.000000

 -----------------------------------------------------------------
                    Cartesian Multipole Moments
 -----------------------------------------------------------------
    Charge (ESU x 10^10)
                -0.0000
    Dipole Moment (Debye)
         X       0.0000      Y      -0.0000      Z      -0.7450
       Tot       0.7450
    Quadrupole Moments (Debye-Ang)
        XX     -10.9585     XY       0.0000     YY     -12.6436
        XZ      -0.0000     YZ      -0.0000     ZZ     -14.1021
    Octopole Moments (Debye-Ang^2)
       XXX       0.0000    XXY       0.0000    XYY       0.0000
       YYY      -0.0000    XXZ      -5.0857    XYZ      -0.0000
       YYZ      -5.0394    XZZ      -0.0000    YZZ       0.0000
       ZZZ     -17.8855
    Hexadecapole Moments (Debye-Ang^3)
      XXXX      -9.7004   XXXY      -0.0000   XXYY      -6.3303
      XYYY       0.0000   YYYY     -26.2212   XXXZ      -0.0000
      XXYZ      -0.0000   XYYZ       0.0000   YYYZ      -0.0000
      XXZZ     -12.8783   XYZZ       0.0000   YYZZ     -15.5689
      XZZZ      -0.0000   YZZZ      -0.0000   ZZZZ     -69.3998
 -----------------------------------------------------------------
Archival summary:
1\1\n0048.mhg0\SP\ProcedureUnspecified\BasisUnspecified\112\yhljason\FriOct3018:01:442020FriOct3018:01:442020\0\\#,ProcedureUnspecified,BasisUnspecified,\\0,1\F\B,1,1.3157\H,2,1.1973,1,117.719\H,2,1.1973,1,117.719,3,-180,0\\\@

 Total job time:  16508.10s(wall), 130749.36s(cpu) 
 Fri Oct 30 18:01:44 2020

        *************************************************************
        *                                                           *
        *  Thank you very much for using Q-Chem.  Have a nice day.  *
        *                                                           *
        *************************************************************


