Q-Chem Developer Version!
                  Welcome to Q-Chem
     A Quantum Leap Into The Future Of Chemistry


 Q-Chem 5.1, Q-Chem, Inc., Pleasanton, CA (2018)

 Yihan Shao,  Zhengting Gan,  E. Epifanovsky,  A. T. B. Gilbert,  M. Wormit,  
 J. Kussmann,  A. W. Lange,  A. Behn,  Jia Deng,  Xintian Feng,  D. Ghosh,  
 M. Goldey,  P. R. Horn,  L. D. Jacobson,  I. Kaliman,  T. Kus,  A. Landau,  
 Jie Liu,  E. I. Proynov,  R. M. Richard,  R. P. Steele,  E. J. Sundstrom,  
 H. L. Woodcock III,  P. M. Zimmerman,  D. Zuev,  B. Albrecht,  E. Alguire,  
 S. A. Baeppler,  D. Barton,  Z. Benda,  Y. A. Bernard,  E. J. Berquist,  
 K. B. Bravaya,  H. Burton,  D. Casanova,  Chun-Min Chang,  Yunqing Chen,  
 A. Chien,  K. D. Closser,  M. P. Coons,  S. Coriani,  S. Dasgupta,  
 A. L. Dempwolff,  M. Diedenhofen,  Hainam Do,  R. G. Edgar,  Po-Tung Fang,  
 S. Faraji,  S. Fatehi,  Qingguo Feng,  K. D. Fenk,  J. Fosso-Tande,  
 Qinghui Ge,  A. Ghysels,  G. Gidofalvi,  J. Gomes,  J. Gonthier,  A. Gunina,  
 D. Hait,  M. W. D. Hanson-Heine,  P. H. P. Harbach,  A. W. Hauser,  
 J. E. Herr,  E. G. Hohenstein,  Z. C. Holden,  Kerwin Hui,  B. C. Huynh,  
 T.-C. Jagau,  Hyunjun Ji,  B. Kaduk,  K. Khistyaev,  Jaehoon Kim,  
 P. Klunzinger,  K. Koh,  D. Kosenkov,  L. Koulias,  T. Kowalczyk,  
 C. M. Krauter,  A. Kunitsa,  Ka Un Lao,  A. Laurent,  K. V. Lawler,  
 Joonho Lee,  D. Lefrancois,  S. Lehtola,  D. S. Levine,  Yi-Pei Li,  
 You-Sheng Lin,  Fenglai Liu,  E. Livshits,  A. Luenser,  P. Manohar,  
 E. Mansoor,  S. F. Manzer,  Shan-Ping Mao,  Yuezhi Mao,  N. Mardirossian,  
 A. V. Marenich,  T. Markovich,  L. A. Martinez-Martinez,  S. A. Maurer,  
 N. J. Mayhall,  S. C. McKenzie,  J.-M. Mewes,  A. F. Morrison,  
 J. W. Mullinax,  K. Nanda,  T. S. Nguyen-Beck,  R. Olivares-Amaya,  
 J. A. Parkhill,  T. M. Perrine,  F. Plasser,  P. Pokhilko,  S. Prager,  
 A. Prociuk,  E. Ramos,  D. R. Rehn,  F. Rob,  M. Schneider,  N. Sergueev,  
 S. M. Sharada,  S. Sharma,  D. W. Small,  T. Stauch,  T. Stein,  
 Yu-Chuan Su,  A. J. W. Thom,  A. Tkatchenko,  T. Tsuchimochi,  N. M. Tubman,  
 L. Vogt,  M. L. Vidal,  O. Vydrov,  M. A. Watson,  J. Wenzel,  
 M. de Wergifosse,  T. A. Wesolowski,  A. White,  J. Witte,  A. Yamada,  
 Jun Yang,  K. Yao,  S. Yeganeh,  S. R. Yost,  Zhi-Qiang You,  A. Zech,  
 Igor Ying Zhang,  Xing Zhang,  Yan Zhao,  Ying Zhu,  B. R. Brooks,  
 G. K. L. Chan,  C. J. Cramer,  M. S. Gordon,  W. J. Hehre,  A. Klamt,  
 M. W. Schmidt,  C. D. Sherrill,  D. G. Truhlar,  A. Aspuru-Guzik,  R. Baer,  
 A. T. Bell,  N. A. Besley,  Jeng-Da Chai,  A. E. DePrince, III,  
 R. A. DiStasio Jr.,  A. Dreuw,  B. D. Dunietz,  T. R. Furlani,  
 Chao-Ping Hsu,  Yousung Jung,  Jing Kong,  D. S. Lambrecht,  WanZhen Liang,  
 C. Ochsenfeld,  V. A. Rassolov,  L. V. Slipchenko,  J. E. Subotnik,  
 T. Van Voorhis,  J. M. Herbert,  A. I. Krylov,  P. M. W. Gill,  M. Head-Gordon

 Contributors to earlier versions of Q-Chem not listed above: 
 R. D. Adamson,  B. Austin,  J. Baker,  G. J. O. Beran,  K. Brandhorst,  
 S. T. Brown,  E. F. C. Byrd,  A. K. Chakraborty,  C.-L. Cheng,  
 Siu Hung Chien,  D. M. Chipman,  D. L. Crittenden,  H. Dachsel,  
 R. J. Doerksen,  A. D. Dutoi,  L. Fusti-Molnar,  W. A. Goddard III,  
 A. Golubeva-Zadorozhnaya,  S. R. Gwaltney,  G. Hawkins,  A. Heyden,  
 S. Hirata,  G. Kedziora,  F. J. Keil,  C. Kelley,  Jihan Kim,  R. A. King,  
 R. Z. Khaliullin,  P. P. Korambath,  W. Kurlancheek,  A. M. Lee,  M. S. Lee,  
 S. V. Levchenko,  Ching Yeh Lin,  D. Liotard,  R. C. Lochan,  I. Lotan,  
 P. E. Maslen,  N. Nair,  D. P. O'Neill,  D. Neuhauser,  E. Neuscamman,  
 C. M. Oana,  R. Olson,  B. Peters,  R. Peverati,  P. A. Pieniazek,  
 Y. M. Rhee,  J. Ritchie,  M. A. Rohrdanz,  E. Rosta,  N. J. Russ,  
 H. F. Schaefer III,  N. E. Schultz,  N. Shenvi,  A. C. Simmonett,  A. Sodt,  
 D. Stuck,  K. S. Thanthiriwatte,  V. Vanovschi,  Tao Wang,  A. Warshel,  
 C. F. Williams,  Q. Wu,  X. Xu,  W. Zhang

 Please cite Q-Chem as follows:
 Y. Shao et al., Mol. Phys. 113, 184-215 (2015)
 DOI: 10.1080/00268976.2014.952696

 Q-Chem 5.1.1 for Intel X86 EM64T Linux

 Parts of Q-Chem use Armadillo 8.300.2 (Tropical Shenanigans).
 http://arma.sourceforge.net/

 Q-Chem begins on Fri Oct 30 13:26:37 2020  

Host: n0061.mhg0
0

     Scratch files written to /local/scratch/users/yhljason/CH2-t_LRC-wPBEh_aug-pc-4.inp20201030131738//
Input Ideriv = 2
Curr. Ideriv = -1
Max.  Ideriv = 2

Checking the input file for inconsistencies... 	...done.

--------------------------------------------------------------
User input:
--------------------------------------------------------------
$molecule
0 3
C1	0.0000	0.0000	0.1027
H2	0.0000	1.0042	-0.3081
H3	0.0000	-1.0042	-0.3081
$end

$rem
jobtype sp
method LRC-wPBEh
xc_grid 000099000590
basis aug-pc-4
max_scf_cycles 200
thresh 14
scf_convergence 8
scf_algorithm gdm
symmetry false
sym_ignore true
unrestricted True
gen_scfman true
internal_stability_iter 15
internal_stability_davidson_iter 200
mem_total 64000
mem_static 1500
n_frozen_core 0
$end



--------------------------------------------------------------
 ----------------------------------------------------------------
             Standard Nuclear Orientation (Angstroms)
    I     Atom           X                Y                Z
 ----------------------------------------------------------------
    1      C       0.0000000000     0.0000000000     0.1027000000
    2      H       0.0000000000     1.0042000000    -0.3081000000
    3      H       0.0000000000    -1.0042000000    -0.3081000000
 ----------------------------------------------------------------
 Nuclear Repulsion Energy =     6.1162592434 hartrees
 There are        5 alpha and        3 beta electrons
 Requested basis set is aug-pc-4
 There are 81 shells and 321 basis functions

 Total QAlloc Memory Limit  64000 MB
 Mega-Array Size      1467 MB
 MEM_STATIC part      1500 MB

                       Distance Matrix (Angstroms)
             C (  1)   H (  2)
   H (  2)  1.084977
   H (  3)  1.084977  2.008400
 
 A cutoff of  1.0D-14 yielded   3306 shell pairs
 There are     52358 function pairs (     93555 Cartesian)
 
 -------------------------------------------------------
 OpenMP Integral Computing Module                       
 Release: version 1.0, May 2013, Q-Chem Inc. Pittsburgh 
 -------------------------------------------------------
 Integral Job Info:
 Integral job number is                      11
 Integral operator is                         1
 short-range coefficients              20000000
 long-range coefficients              100000000
 Omega coefficients                         200
 if combine SR and LR in K                    1
 Integral screening is                        0
 Integral computing path is                   2
 max size of driver memory is           6400000
 size of driver memory is               5498286
 size of scratch memory is             28955960
 max col of scratch BK array             194481
 max len of scratch array in speh3         5572
 max len of scratch index in speh4           72
 max int batch size is                      520
 min int batch size is                       52
 fixed nKL is                                24
 max L of basis functions is                  5
 order of int derivative is                   0
 number of shells is                         81
 number of basis is                         428
 number of cartesian basis is               428
 number of contracted shell pairs          3306
 number of primitive shell pairs           6115
 maxK2 (contraction) of shell pair          121
 max number of K2 of shell pair               1
 max number of CS2 of shell pair            441
 max number of PS2 of shell pair            441
 mem total for path MDJ                  900380
 -------------------------------------------------------
 Smallest overlap matrix eigenvalue = 2.72E-07
 Linear dependence detected in AO basis
 Number of orthogonalized atomic orbitals = 320
 Maximum deviation from orthogonality = 1.522E-10

 Scale SEOQF with 1.000000e-01/1.000000e-01/1.000000e-01

 Standard Electronic Orientation quadrupole field applied
 Nucleus-field energy     =     0.0000000001 hartrees
 Guess from superposition of atomic densities
 Warning:  Energy on first SCF cycle will be non-variational
 SAD guess density has 8.000000 electrons

 -----------------------------------------------------------------------
  General SCF calculation program by
  Eric Jon Sundstrom, Paul Horn, Yuezhi Mao, Dmitri Zuev, Alec White,
  David Stuck, Shaama M.S., Shane Yost, Joonho Lee, David Small,
  Daniel Levine, Susi Lehtola, Hugh Burton, Evgeny Epifanovsky
 -----------------------------------------------------------------------
 Exchange:     0.2000 Hartree-Fock + 0.8000 wPBE + LR-HF
 Correlation:  1.0000 PBE
 Using Euler-Maclaurin-Lebedev (99,590) quadrature formula
Running Object-Oriented UKS (UHF)
performing a single roothaan step with Fock from read density so that orbitals are available to all algorithms
energy of the guess density (C=0) -38.974582915702
We will preform up to 15 macro iterations over saddle points until a stable solution is found
Energy prior to optimization (guess energy) = -39.119054400731
Begin Timing: Total SCF Calculation
Begin Timing: SCF Single Stationary Point Calculation
begin iterations for algorithm: GDM          
the SCF tolerance is set to 1.00e-08
    1     -39.1190544007      5.31e-02     00000  Normal BFGS step
    2     -39.1261216669      1.37e-02     00000  Normal BFGS step
    3     -39.1273500073      2.44e-03     00000  Normal BFGS step
    4     -39.1274309386      1.16e-03     00000  Normal BFGS step
    5     -39.1274400823      1.83e-04     00000  Normal BFGS step
    6     -39.1274404176      4.98e-05     00000  Normal BFGS step
    7     -39.1274404410      1.32e-05     00000  Normal BFGS step
    8     -39.1274404415      2.88e-06     00000  Normal BFGS step
    9     -39.1274404416      6.87e-07     00000  Normal BFGS step
   10     -39.1274404416      2.02e-07     00000  Normal BFGS step
   11     -39.1274404416      3.98e-08     00000  Normal BFGS step
   12     -39.1274404416      8.94e-09     00000 Convergence criterion met
Timing for Single Stationary Point: 1254.00s (wall), 9938.01s (cpu)
Begin Timing: Stability
===================================================
Beginning Test for Internal Stability
===================================================
generating davidson guess vectors based on koopmans excitations
    1      3.60e-01     00000 Davidson Iteration
    2      4.66e-01     00000 Davidson Iteration
    3      8.16e-02     00000 Davidson Iteration
    4      3.63e-02     00000 Davidson Iteration
    5      2.45e-02     00000 Davidson Iteration
    6      9.34e-03     00000 Davidson Iteration
    7      1.77e-03     00000 Davidson Iteration
    8      1.12e-03     00000 Davidson Iteration
    9      4.56e-04     00000 Davidson Iteration
   10      1.05e-04     00000 Davidson Iteration
   11      4.07e-05     00000 Davidson Iteration
   12      8.98e-05     00000 Davidson Converged
converged_eigenvalues
   0.4262
   0.4947
Threshold for negative eigenvalues: -1.0e-05
solution was a local minimum (stable)
===================================================
End Test for Internal Stability
===================================================
Our SCF solution is stable!
Timing for Total SCF: 4488.00s (wall), 35636.71s (cpu)
 Total energy in the final basis set =      -39.1274404416
<S^2> =          2.006921853
    ==================================================
              The end of Object-Oriented SCFman       
    ==================================================
 
 --------------------------------------------------------------
 
                    Orbital Energies (a.u.)
 --------------------------------------------------------------
 
 Alpha MOs
 -- Occupied --
-10.296  -0.777  -0.541  -0.369  -0.336
 -- Virtual --
  0.016   0.031   0.032   0.033   0.049   0.065   0.089   0.104
  0.110   0.111   0.112   0.115   0.119   0.135   0.153   0.160
  0.166   0.169   0.174   0.186   0.192   0.218   0.225   0.239
  0.248   0.262   0.264   0.269   0.274   0.274   0.279   0.285
  0.291   0.291   0.301   0.311   0.321   0.333   0.343   0.364
  0.376   0.378   0.383   0.392   0.393   0.398   0.401   0.428
  0.431   0.433   0.439   0.440   0.446   0.464   0.488   0.489
  0.493   0.493   0.513   0.520   0.523   0.544   0.553   0.554
  0.554   0.567   0.596   0.606   0.615   0.624   0.626   0.626
  0.635   0.637   0.661   0.668   0.673   0.681   0.685   0.708
  0.709   0.721   0.726   0.738   0.739   0.750   0.751   0.755
  0.783   0.783   0.791   0.806   0.820   0.836   0.846   0.851
  0.851   0.858   0.867   0.879   0.885   0.898   0.900   0.909
  0.919   0.930   0.933   0.942   1.015   1.060   1.063   1.094
  1.101   1.121   1.204   1.258   1.320   1.322   1.335   1.359
  1.424   1.430   1.465   1.535   1.542   1.583   1.618   1.619
  1.634   1.679   1.686   1.729   1.763   1.795   1.882   2.053
  2.120   2.133   2.181   2.183   2.228   2.277   2.311   2.320
  2.403   2.536   2.556   2.750   2.754   2.838   2.984   3.005
  3.139   3.201   3.244   3.294   3.430   3.554   3.566   3.567
  3.587   3.627   3.703   3.740   3.750   3.757   3.794   3.817
  3.879   4.008   4.065   4.196   4.206   4.242   4.276   4.381
  4.386   4.465   4.550   4.584   4.661   4.714   4.739   4.759
  4.824   4.873   4.879   5.052   5.124   5.208   5.272   5.306
  5.455   5.555   5.638   5.720   5.787   6.027   6.204   6.240
  6.483   6.591   6.599   6.668   6.856   6.885   7.098   7.563
  7.849   8.548   8.714   8.737   8.877   8.978   8.979   8.981
  9.048   9.157   9.202   9.227   9.309   9.569   9.821  10.421
 10.446  10.661  10.679  10.791  10.860  10.898  10.905  10.906
 10.931  10.978  11.010  11.074  11.190  11.581  11.656  11.678
 11.730  11.758  11.783  11.829  11.902  11.950  12.088  12.245
 12.419  12.450  12.452  12.489  12.513  12.521  12.587  12.668
 12.683  13.032  13.036  13.161  13.291  13.382  13.698  13.845
 13.886  14.189  14.576  15.116  15.172  15.528  15.757  16.236
 16.405  16.899  16.900  16.907  16.912  16.964  17.241  17.298
 17.387  17.411  18.192  18.344  18.756  18.779  19.223  19.652
 20.168  20.194  20.355  20.481  20.775  21.039  21.608  23.624
 23.776  23.796  23.844  25.646  25.668  32.215  32.234  32.566
 33.409  34.266  41.127  41.353  75.101  91.262  91.349  91.382
 91.416  92.559  92.600
 
 Beta MOs
 -- Occupied --
-10.265  -0.689  -0.519
 -- Virtual --
 -0.008   0.010   0.017   0.031   0.036   0.041   0.049   0.070
  0.091   0.105   0.114   0.114   0.114   0.126   0.132   0.138
  0.153   0.161   0.167   0.170   0.183   0.191   0.204   0.220
  0.227   0.241   0.254   0.263   0.270   0.274   0.284   0.284
  0.285   0.295   0.303   0.303   0.309   0.318   0.329   0.345
  0.346   0.366   0.381   0.381   0.389   0.397   0.398   0.402
  0.403   0.435   0.437   0.440   0.442   0.442   0.447   0.473
  0.495   0.498   0.499   0.501   0.522   0.522   0.535   0.558
  0.558   0.573   0.580   0.580   0.602   0.610   0.632   0.632
  0.642   0.644   0.645   0.653   0.669   0.679   0.679   0.688
  0.691   0.714   0.717   0.725   0.731   0.744   0.744   0.754
  0.755   0.769   0.792   0.792   0.801   0.815   0.824   0.841
  0.850   0.854   0.854   0.867   0.872   0.886   0.893   0.906
  0.910   0.915   0.929   0.940   0.942   0.952   1.022   1.107
  1.119   1.131   1.132   1.144   1.247   1.287   1.331   1.350
  1.360   1.395   1.450   1.459   1.488   1.546   1.559   1.605
  1.626   1.643   1.663   1.693   1.694   1.761   1.790   1.842
  1.923   2.106   2.148   2.176   2.223   2.259   2.304   2.313
  2.371   2.384   2.442   2.578   2.596   2.771   2.806   2.910
  3.004   3.060   3.161   3.223   3.264   3.314   3.462   3.578
  3.585   3.590   3.603   3.637   3.732   3.759   3.771   3.778
  3.830   3.849   3.892   4.024   4.094   4.232   4.236   4.331
  4.343   4.484   4.485   4.491   4.597   4.637   4.713   4.766
  4.802   4.829   4.923   4.929   4.976   5.100   5.173   5.251
  5.325   5.363   5.516   5.628   5.704   5.760   5.822   6.078
  6.248   6.332   6.546   6.643   6.657   6.709   6.897   6.909
  7.165   7.601   7.864   8.555   8.726   8.747   8.883   8.982
  8.982   8.985   9.054   9.174   9.219   9.246   9.331   9.585
  9.850  10.565  10.594  10.686  10.704  10.874  10.924  10.985
 11.016  11.020  11.058  11.067  11.092  11.120  11.242  11.631
 11.692  11.728  11.837  11.849  11.856  11.885  12.046  12.089
 12.172  12.315  12.442  12.471  12.495  12.509  12.534  12.547
 12.613  12.734  12.751  13.056  13.084  13.228  13.310  13.466
 13.771  13.865  13.928  14.238  14.636  15.130  15.208  15.554
 15.789  16.272  16.420  16.899  16.900  16.908  16.912  17.010
 17.243  17.318  17.392  17.416  18.259  18.349  18.768  18.787
 19.235  19.702  20.171  20.204  20.373  20.491  20.785  21.048
 21.633  23.621  23.772  23.793  23.840  25.647  25.668  32.301
 32.319  32.618  33.457  34.304  41.124  41.349  75.130  91.256
 91.342  91.375  91.409  92.553  92.593
 --------------------------------------------------------------
 
          Ground-State Mulliken Net Atomic Charges

     Atom                 Charge (a.u.)    Spin (a.u.)
  --------------------------------------------------------
      1 C                    -0.178337       1.967038
      2 H                     0.089169       0.016481
      3 H                     0.089169       0.016481
  --------------------------------------------------------
  Sum of atomic charges =     0.000000
  Sum of spin   charges =     2.000000

 -----------------------------------------------------------------
                    Cartesian Multipole Moments
 -----------------------------------------------------------------
    Charge (ESU x 10^10)
                 0.0000
    Dipole Moment (Debye)
         X       0.0000      Y       0.0000      Z      -0.6039
       Tot       0.6039
    Quadrupole Moments (Debye-Ang)
        XX      -8.3502     XY      -0.0000     YY      -5.8355
        XZ      -0.0000     YZ      -0.0000     ZZ      -7.8375
    Octopole Moments (Debye-Ang^2)
       XXX      -0.0000    XXY       0.0000    XYY       0.0000
       YYY       0.0000    XXZ      -0.3225    XYZ       0.0000
       YYZ      -1.0221    XZZ       0.0000    YZZ       0.0000
       ZZZ      -0.9585
    Hexadecapole Moments (Debye-Ang^3)
      XXXX     -11.1315   XXXY       0.0000   XXYY      -4.8002
      XYYY      -0.0000   YYYY     -13.7608   XXXZ      -0.0000
      XXYZ      -0.0000   XYYZ       0.0000   YYYZ      -0.0000
      XXZZ      -3.7549   XYZZ       0.0000   YYZZ      -4.4326
      XZZZ       0.0000   YZZZ      -0.0000   ZZZZ     -11.3223
 -----------------------------------------------------------------
Archival summary:
1\1\n0061.mhg0\SP\ProcedureUnspecified\BasisUnspecified\12(3)\yhljason\FriOct3014:43:252020FriOct3014:43:252020\0\\#,ProcedureUnspecified,BasisUnspecified,\\0,3\C\H,1,1.08498\H,1,1.08498,2,135.503\\\@

 Total job time:  4607.15s(wall), 36559.92s(cpu) 
 Fri Oct 30 14:43:25 2020

        *************************************************************
        *                                                           *
        *  Thank you very much for using Q-Chem.  Have a nice day.  *
        *                                                           *
        *************************************************************


