Q-Chem Developer Version!
                  Welcome to Q-Chem
     A Quantum Leap Into The Future Of Chemistry


 Q-Chem 5.1, Q-Chem, Inc., Pleasanton, CA (2018)

 Yihan Shao,  Zhengting Gan,  E. Epifanovsky,  A. T. B. Gilbert,  M. Wormit,  
 J. Kussmann,  A. W. Lange,  A. Behn,  Jia Deng,  Xintian Feng,  D. Ghosh,  
 M. Goldey,  P. R. Horn,  L. D. Jacobson,  I. Kaliman,  T. Kus,  A. Landau,  
 Jie Liu,  E. I. Proynov,  R. M. Richard,  R. P. Steele,  E. J. Sundstrom,  
 H. L. Woodcock III,  P. M. Zimmerman,  D. Zuev,  B. Albrecht,  E. Alguire,  
 S. A. Baeppler,  D. Barton,  Z. Benda,  Y. A. Bernard,  E. J. Berquist,  
 K. B. Bravaya,  H. Burton,  D. Casanova,  Chun-Min Chang,  Yunqing Chen,  
 A. Chien,  K. D. Closser,  M. P. Coons,  S. Coriani,  S. Dasgupta,  
 A. L. Dempwolff,  M. Diedenhofen,  Hainam Do,  R. G. Edgar,  Po-Tung Fang,  
 S. Faraji,  S. Fatehi,  Qingguo Feng,  K. D. Fenk,  J. Fosso-Tande,  
 Qinghui Ge,  A. Ghysels,  G. Gidofalvi,  J. Gomes,  J. Gonthier,  A. Gunina,  
 D. Hait,  M. W. D. Hanson-Heine,  P. H. P. Harbach,  A. W. Hauser,  
 J. E. Herr,  E. G. Hohenstein,  Z. C. Holden,  Kerwin Hui,  B. C. Huynh,  
 T.-C. Jagau,  Hyunjun Ji,  B. Kaduk,  K. Khistyaev,  Jaehoon Kim,  
 P. Klunzinger,  K. Koh,  D. Kosenkov,  L. Koulias,  T. Kowalczyk,  
 C. M. Krauter,  A. Kunitsa,  Ka Un Lao,  A. Laurent,  K. V. Lawler,  
 Joonho Lee,  D. Lefrancois,  S. Lehtola,  D. S. Levine,  Yi-Pei Li,  
 You-Sheng Lin,  Fenglai Liu,  E. Livshits,  A. Luenser,  P. Manohar,  
 E. Mansoor,  S. F. Manzer,  Shan-Ping Mao,  Yuezhi Mao,  N. Mardirossian,  
 A. V. Marenich,  T. Markovich,  L. A. Martinez-Martinez,  S. A. Maurer,  
 N. J. Mayhall,  S. C. McKenzie,  J.-M. Mewes,  A. F. Morrison,  
 J. W. Mullinax,  K. Nanda,  T. S. Nguyen-Beck,  R. Olivares-Amaya,  
 J. A. Parkhill,  T. M. Perrine,  F. Plasser,  P. Pokhilko,  S. Prager,  
 A. Prociuk,  E. Ramos,  D. R. Rehn,  F. Rob,  M. Schneider,  N. Sergueev,  
 S. M. Sharada,  S. Sharma,  D. W. Small,  T. Stauch,  T. Stein,  
 Yu-Chuan Su,  A. J. W. Thom,  A. Tkatchenko,  T. Tsuchimochi,  N. M. Tubman,  
 L. Vogt,  M. L. Vidal,  O. Vydrov,  M. A. Watson,  J. Wenzel,  
 M. de Wergifosse,  T. A. Wesolowski,  A. White,  J. Witte,  A. Yamada,  
 Jun Yang,  K. Yao,  S. Yeganeh,  S. R. Yost,  Zhi-Qiang You,  A. Zech,  
 Igor Ying Zhang,  Xing Zhang,  Yan Zhao,  Ying Zhu,  B. R. Brooks,  
 G. K. L. Chan,  C. J. Cramer,  M. S. Gordon,  W. J. Hehre,  A. Klamt,  
 M. W. Schmidt,  C. D. Sherrill,  D. G. Truhlar,  A. Aspuru-Guzik,  R. Baer,  
 A. T. Bell,  N. A. Besley,  Jeng-Da Chai,  A. E. DePrince, III,  
 R. A. DiStasio Jr.,  A. Dreuw,  B. D. Dunietz,  T. R. Furlani,  
 Chao-Ping Hsu,  Yousung Jung,  Jing Kong,  D. S. Lambrecht,  WanZhen Liang,  
 C. Ochsenfeld,  V. A. Rassolov,  L. V. Slipchenko,  J. E. Subotnik,  
 T. Van Voorhis,  J. M. Herbert,  A. I. Krylov,  P. M. W. Gill,  M. Head-Gordon

 Contributors to earlier versions of Q-Chem not listed above: 
 R. D. Adamson,  B. Austin,  J. Baker,  G. J. O. Beran,  K. Brandhorst,  
 S. T. Brown,  E. F. C. Byrd,  A. K. Chakraborty,  C.-L. Cheng,  
 Siu Hung Chien,  D. M. Chipman,  D. L. Crittenden,  H. Dachsel,  
 R. J. Doerksen,  A. D. Dutoi,  L. Fusti-Molnar,  W. A. Goddard III,  
 A. Golubeva-Zadorozhnaya,  S. R. Gwaltney,  G. Hawkins,  A. Heyden,  
 S. Hirata,  G. Kedziora,  F. J. Keil,  C. Kelley,  Jihan Kim,  R. A. King,  
 R. Z. Khaliullin,  P. P. Korambath,  W. Kurlancheek,  A. M. Lee,  M. S. Lee,  
 S. V. Levchenko,  Ching Yeh Lin,  D. Liotard,  R. C. Lochan,  I. Lotan,  
 P. E. Maslen,  N. Nair,  D. P. O'Neill,  D. Neuhauser,  E. Neuscamman,  
 C. M. Oana,  R. Olson,  B. Peters,  R. Peverati,  P. A. Pieniazek,  
 Y. M. Rhee,  J. Ritchie,  M. A. Rohrdanz,  E. Rosta,  N. J. Russ,  
 H. F. Schaefer III,  N. E. Schultz,  N. Shenvi,  A. C. Simmonett,  A. Sodt,  
 D. Stuck,  K. S. Thanthiriwatte,  V. Vanovschi,  Tao Wang,  A. Warshel,  
 C. F. Williams,  Q. Wu,  X. Xu,  W. Zhang

 Please cite Q-Chem as follows:
 Y. Shao et al., Mol. Phys. 113, 184-215 (2015)
 DOI: 10.1080/00268976.2014.952696

 Q-Chem 5.1.1 for Intel X86 EM64T Linux

 Parts of Q-Chem use Armadillo 8.300.2 (Tropical Shenanigans).
 http://arma.sourceforge.net/

 Q-Chem begins on Fri Oct 30 13:26:37 2020  

Host: n0089.mhg0
0

     Scratch files written to /local/scratch/users/yhljason/LiCl_LRC-wPBEh_aug-pc-4.inp20201030131741//
Input Ideriv = 2
Curr. Ideriv = -1
Max.  Ideriv = 2

Checking the input file for inconsistencies... 	...done.

--------------------------------------------------------------
User input:
--------------------------------------------------------------
$molecule
0 1
Li1     0.0000  0.0000  0.0000
Cl2     0.0000  0.0000  2.0207
$end

$rem
jobtype sp
method LRC-wPBEh
xc_grid 000099000590
basis aug-pc-4
max_scf_cycles 200
thresh 14
scf_convergence 8
scf_algorithm gdm
symmetry false
sym_ignore true
unrestricted True
gen_scfman true
internal_stability_iter 15
internal_stability_davidson_iter 200
mem_total 64000
mem_static 1500
n_frozen_core 0
$end



--------------------------------------------------------------
 ----------------------------------------------------------------
             Standard Nuclear Orientation (Angstroms)
    I     Atom           X                Y                Z
 ----------------------------------------------------------------
    1      Li      0.0000000000     0.0000000000     0.0000000000
    2      Cl      0.0000000000     0.0000000000     2.0207000000
 ----------------------------------------------------------------
 Nuclear Repulsion Energy =    13.3557864853 hartrees
 There are       10 alpha and       10 beta electrons
 Requested basis set is aug-pc-4
 There are 54 shells and 224 basis functions

 Total QAlloc Memory Limit  64000 MB
 Mega-Array Size      1467 MB
 MEM_STATIC part      1500 MB

                       Distance Matrix (Angstroms)
             Li(  1)
   Cl(  2)  2.020700
 
 A cutoff of  1.0D-14 yielded   1485 shell pairs
 There are     25783 function pairs (     48432 Cartesian)
 
 -------------------------------------------------------
 OpenMP Integral Computing Module                       
 Release: version 1.0, May 2013, Q-Chem Inc. Pittsburgh 
 -------------------------------------------------------
 Integral Job Info:
 Integral job number is                      11
 Integral operator is                         1
 short-range coefficients              20000000
 long-range coefficients              100000000
 Omega coefficients                         200
 if combine SR and LR in K                    1
 Integral screening is                        0
 Integral computing path is                   2
 max size of driver memory is           6400000
 size of driver memory is               5498286
 size of scratch memory is             28418842
 max col of scratch BK array             194481
 max len of scratch array in speh3         5572
 max len of scratch index in speh4           72
 max int batch size is                      520
 min int batch size is                       52
 fixed nKL is                                 7
 max L of basis functions is                  5
 order of int derivative is                   0
 number of shells is                         54
 number of basis is                         306
 number of cartesian basis is               306
 number of contracted shell pairs          1485
 number of primitive shell pairs           8483
 maxK2 (contraction) of shell pair          225
 max number of K2 of shell pair               1
 max number of CS2 of shell pair            132
 max number of PS2 of shell pair            864
 mem total for path MDJ                  836120
 -------------------------------------------------------
 Smallest overlap matrix eigenvalue = 1.44E-05

 Scale SEOQF with 1.000000e-01/1.000000e-01/1.000000e-01

 Standard Electronic Orientation quadrupole field applied
 Nucleus-field energy     =    -0.0000000074 hartrees
 Guess from superposition of atomic densities
 Warning:  Energy on first SCF cycle will be non-variational
 SAD guess density has 20.000000 electrons

 -----------------------------------------------------------------------
  General SCF calculation program by
  Eric Jon Sundstrom, Paul Horn, Yuezhi Mao, Dmitri Zuev, Alec White,
  David Stuck, Shaama M.S., Shane Yost, Joonho Lee, David Small,
  Daniel Levine, Susi Lehtola, Hugh Burton, Evgeny Epifanovsky
 -----------------------------------------------------------------------
 Exchange:     0.2000 Hartree-Fock + 0.8000 wPBE + LR-HF
 Correlation:  1.0000 PBE
 Using Euler-Maclaurin-Lebedev (99,590) quadrature formula
Running Object-Oriented UKS (UHF)
performing a single roothaan step with Fock from read density so that orbitals are available to all algorithms
energy of the guess density (C=0) -467.472597839409
We will preform up to 15 macro iterations over saddle points until a stable solution is found
Energy prior to optimization (guess energy) = -467.620911495844
Begin Timing: Total SCF Calculation
Begin Timing: SCF Single Stationary Point Calculation
begin iterations for algorithm: GDM          
the SCF tolerance is set to 1.00e-08
    1    -467.6209114958      6.67e-02     00000  Descent step
    2    -467.6443490217      3.61e-02     00000  Normal BFGS step
    3    -467.6582863339      3.94e-03     00000  Normal BFGS step
    4    -467.6584925103      1.64e-03     00000  Normal BFGS step
    5    -467.6585102418      4.73e-04     00000  Normal BFGS step
    6    -467.6585126643      1.11e-04     00000  Normal BFGS step
    7    -467.6585127692      3.22e-05     00000  Normal BFGS step
    8    -467.6585127752      3.45e-06     00000  Normal BFGS step
    9    -467.6585127753      1.22e-06     00000  Normal BFGS step
   10    -467.6585127753      1.27e-07     00000  Normal BFGS step
   11    -467.6585127753      2.20e-08     00000  Normal BFGS step
   12    -467.6585127753      4.40e-09     00000 Convergence criterion met
Timing for Single Stationary Point: 619.00s (wall), 4890.23s (cpu)
Begin Timing: Stability
===================================================
Beginning Test for Internal Stability
===================================================
generating davidson guess vectors based on koopmans excitations
    1      7.30e-01     00000 Davidson Iteration
    2      5.27e-01     00000 Davidson Iteration
    3      3.31e-02     00000 Davidson Iteration
    4      1.60e-02     00000 Davidson Iteration
    5      3.66e-03     00000 Davidson Iteration
    6      2.42e-03     00000 Davidson Iteration
    7      5.98e-04     00000 Davidson Iteration
    8      2.48e-04     00000 Davidson Iteration
    9      6.37e-05     00000 Davidson Iteration
   10      1.18e-04     00000 Davidson Iteration
   11      5.25e-05     00000 Davidson Converged
converged_eigenvalues
   0.3601
   0.3467
Threshold for negative eigenvalues: -1.0e-05
solution was a local minimum (stable)
===================================================
End Test for Internal Stability
===================================================
Our SCF solution is stable!
Timing for Total SCF: 1826.00s (wall), 14471.30s (cpu)
 Total energy in the final basis set =     -467.6585127753
<S^2> =         -0.000000000
    ==================================================
              The end of Object-Oriented SCFman       
    ==================================================
 
 --------------------------------------------------------------
 
                    Orbital Energies (a.u.)
 --------------------------------------------------------------
 
 Alpha MOs
 -- Occupied --
*******  -9.446  -7.191  -7.190  -7.190  -2.108  -0.806  -0.357
 -0.334  -0.334
 -- Virtual --
 -0.019   0.010   0.013   0.013   0.020   0.046   0.046   0.052
  0.060   0.069   0.069   0.073   0.073   0.073   0.092   0.092
  0.097   0.119   0.119   0.123   0.123   0.135   0.135   0.137
  0.150   0.167   0.167   0.181   0.181   0.182   0.186   0.186
  0.187   0.187   0.194   0.194   0.201   0.231   0.239   0.239
  0.250   0.250   0.282   0.313   0.313   0.328   0.372   0.372
  0.377   0.386   0.386   0.413   0.464   0.464   0.467   0.467
  0.468   0.468   0.484   0.504   0.504   0.519   0.519   0.549
  0.611   0.611   0.622   0.622   0.647   0.654   0.654   0.697
  0.697   0.706   0.711   0.711   0.768   0.834   0.839   0.839
  0.849   0.849   0.890   0.890   0.895   0.895   0.924   0.924
  0.938   0.947   0.947   0.994   1.014   1.014   1.031   1.031
  1.046   1.046   1.089   1.089   1.135   1.168   1.168   1.210
  1.210   1.234   1.244   1.244   1.387   1.482   1.482   1.579
  1.579   1.640   1.654   1.654   1.896   1.896   1.962   2.003
  2.005   2.005   2.109   2.153   2.360   2.360   2.442   2.442
  2.446   2.446   2.531   2.531   2.630   2.640   2.640   2.799
  2.799   2.800   2.800   2.839   2.839   2.940   3.079   3.079
  3.117   3.117   3.173   3.173   3.273   3.497   3.497   3.742
  3.759   3.759   3.917   3.917   3.924   3.924   4.229   4.229
  4.264   4.393   5.038   5.038   5.204   5.406   5.406   5.610
  5.610   5.935   5.935   5.940   5.940   5.952   5.952   6.031
  6.031   6.073   6.073   6.094   6.100   6.100   6.223   6.486
  6.486   6.546   9.393   9.393   9.399   9.399   9.497   9.497
  9.536   9.765   9.765  10.920  13.184  13.184  13.231  13.231
 13.340  13.340  13.424  17.977  17.977  18.072  18.072  18.282
 38.889  66.377  66.377  66.435  66.435  66.568
 
 Beta MOs
 -- Occupied --
*******  -9.446  -7.191  -7.190  -7.190  -2.108  -0.806  -0.357
 -0.334  -0.334
 -- Virtual --
 -0.019   0.010   0.013   0.013   0.020   0.046   0.046   0.052
  0.060   0.069   0.069   0.073   0.073   0.073   0.092   0.092
  0.097   0.119   0.119   0.123   0.123   0.135   0.135   0.137
  0.150   0.167   0.167   0.181   0.181   0.182   0.186   0.186
  0.187   0.187   0.194   0.194   0.201   0.231   0.239   0.239
  0.250   0.250   0.282   0.313   0.313   0.328   0.372   0.372
  0.377   0.386   0.386   0.413   0.464   0.464   0.467   0.467
  0.468   0.468   0.484   0.504   0.504   0.519   0.519   0.549
  0.611   0.611   0.622   0.622   0.647   0.654   0.654   0.697
  0.697   0.706   0.711   0.711   0.768   0.834   0.839   0.839
  0.849   0.849   0.890   0.890   0.895   0.895   0.924   0.924
  0.938   0.947   0.947   0.994   1.014   1.014   1.031   1.031
  1.046   1.046   1.089   1.089   1.135   1.168   1.168   1.210
  1.210   1.234   1.244   1.244   1.387   1.482   1.482   1.579
  1.579   1.640   1.654   1.654   1.896   1.896   1.962   2.003
  2.005   2.005   2.109   2.153   2.360   2.360   2.442   2.442
  2.446   2.446   2.531   2.531   2.630   2.640   2.640   2.799
  2.799   2.800   2.800   2.839   2.839   2.940   3.079   3.079
  3.117   3.117   3.173   3.173   3.273   3.497   3.497   3.742
  3.759   3.759   3.917   3.917   3.924   3.924   4.229   4.229
  4.264   4.393   5.038   5.038   5.204   5.406   5.406   5.610
  5.610   5.935   5.935   5.940   5.940   5.952   5.952   6.031
  6.031   6.073   6.073   6.094   6.100   6.100   6.223   6.486
  6.486   6.546   9.393   9.393   9.399   9.399   9.497   9.497
  9.536   9.765   9.765  10.920  13.184  13.184  13.231  13.231
 13.340  13.340  13.424  17.977  17.977  18.072  18.072  18.282
 38.889  66.377  66.377  66.435  66.435  66.568
 --------------------------------------------------------------
 
          Ground-State Mulliken Net Atomic Charges

     Atom                 Charge (a.u.)    Spin (a.u.)
  --------------------------------------------------------
      1 Li                    0.551682      -0.000000
      2 Cl                   -0.551682       0.000000
  --------------------------------------------------------
  Sum of atomic charges =    -0.000000
  Sum of spin   charges =     0.000000

 -----------------------------------------------------------------
                    Cartesian Multipole Moments
 -----------------------------------------------------------------
    Charge (ESU x 10^10)
                 0.0000
    Dipole Moment (Debye)
         X       0.0000      Y       0.0000      Z      -7.0122
       Tot       7.0122
    Quadrupole Moments (Debye-Ang)
        XX     -16.4393     XY       0.0000     YY     -16.4393
        XZ       0.0000     YZ       0.0000     ZZ     -26.6382
    Octopole Moments (Debye-Ang^2)
       XXX       0.0000    XXY       0.0000    XYY       0.0000
       YYY       0.0000    XXZ     -30.5959    XYZ      -0.0000
       YYZ     -30.5959    XZZ       0.0000    YZZ       0.0000
       ZZZ    -106.8169
    Hexadecapole Moments (Debye-Ang^3)
      XXXX     -23.4381   XXXY       0.0000   XXYY      -7.8127
      XYYY      -0.0000   YYYY     -23.4381   XXXZ       0.0000
      XXYZ      -0.0000   XYYZ       0.0000   YYYZ       0.0000
      XXZZ     -66.9638   XYZZ      -0.0000   YYZZ     -66.9638
      XZZZ       0.0000   YZZZ       0.0000   ZZZZ    -400.6529
 -----------------------------------------------------------------
Archival summary:
1\1\n0089.mhg0\SP\ProcedureUnspecified\BasisUnspecified\l1i1\yhljason\FriOct3013:58:102020FriOct3013:58:102020\0\\#,ProcedureUnspecified,BasisUnspecified,\\0,1\Li\Cl,1,2.0207\\\@

 Total job time:  1893.29s(wall), 14991.26s(cpu) 
 Fri Oct 30 13:58:10 2020

        *************************************************************
        *                                                           *
        *  Thank you very much for using Q-Chem.  Have a nice day.  *
        *                                                           *
        *************************************************************


