Q-Chem Developer Version!
                  Welcome to Q-Chem
     A Quantum Leap Into The Future Of Chemistry


 Q-Chem 5.1, Q-Chem, Inc., Pleasanton, CA (2018)

 Yihan Shao,  Zhengting Gan,  E. Epifanovsky,  A. T. B. Gilbert,  M. Wormit,  
 J. Kussmann,  A. W. Lange,  A. Behn,  Jia Deng,  Xintian Feng,  D. Ghosh,  
 M. Goldey,  P. R. Horn,  L. D. Jacobson,  I. Kaliman,  T. Kus,  A. Landau,  
 Jie Liu,  E. I. Proynov,  R. M. Richard,  R. P. Steele,  E. J. Sundstrom,  
 H. L. Woodcock III,  P. M. Zimmerman,  D. Zuev,  B. Albrecht,  E. Alguire,  
 S. A. Baeppler,  D. Barton,  Z. Benda,  Y. A. Bernard,  E. J. Berquist,  
 K. B. Bravaya,  H. Burton,  D. Casanova,  Chun-Min Chang,  Yunqing Chen,  
 A. Chien,  K. D. Closser,  M. P. Coons,  S. Coriani,  S. Dasgupta,  
 A. L. Dempwolff,  M. Diedenhofen,  Hainam Do,  R. G. Edgar,  Po-Tung Fang,  
 S. Faraji,  S. Fatehi,  Qingguo Feng,  K. D. Fenk,  J. Fosso-Tande,  
 Qinghui Ge,  A. Ghysels,  G. Gidofalvi,  J. Gomes,  J. Gonthier,  A. Gunina,  
 D. Hait,  M. W. D. Hanson-Heine,  P. H. P. Harbach,  A. W. Hauser,  
 J. E. Herr,  E. G. Hohenstein,  Z. C. Holden,  Kerwin Hui,  B. C. Huynh,  
 T.-C. Jagau,  Hyunjun Ji,  B. Kaduk,  K. Khistyaev,  Jaehoon Kim,  
 P. Klunzinger,  K. Koh,  D. Kosenkov,  L. Koulias,  T. Kowalczyk,  
 C. M. Krauter,  A. Kunitsa,  Ka Un Lao,  A. Laurent,  K. V. Lawler,  
 Joonho Lee,  D. Lefrancois,  S. Lehtola,  D. S. Levine,  Yi-Pei Li,  
 You-Sheng Lin,  Fenglai Liu,  E. Livshits,  A. Luenser,  P. Manohar,  
 E. Mansoor,  S. F. Manzer,  Shan-Ping Mao,  Yuezhi Mao,  N. Mardirossian,  
 A. V. Marenich,  T. Markovich,  L. A. Martinez-Martinez,  S. A. Maurer,  
 N. J. Mayhall,  S. C. McKenzie,  J.-M. Mewes,  A. F. Morrison,  
 J. W. Mullinax,  K. Nanda,  T. S. Nguyen-Beck,  R. Olivares-Amaya,  
 J. A. Parkhill,  T. M. Perrine,  F. Plasser,  P. Pokhilko,  S. Prager,  
 A. Prociuk,  E. Ramos,  D. R. Rehn,  F. Rob,  M. Schneider,  N. Sergueev,  
 S. M. Sharada,  S. Sharma,  D. W. Small,  T. Stauch,  T. Stein,  
 Yu-Chuan Su,  A. J. W. Thom,  A. Tkatchenko,  T. Tsuchimochi,  N. M. Tubman,  
 L. Vogt,  M. L. Vidal,  O. Vydrov,  M. A. Watson,  J. Wenzel,  
 M. de Wergifosse,  T. A. Wesolowski,  A. White,  J. Witte,  A. Yamada,  
 Jun Yang,  K. Yao,  S. Yeganeh,  S. R. Yost,  Zhi-Qiang You,  A. Zech,  
 Igor Ying Zhang,  Xing Zhang,  Yan Zhao,  Ying Zhu,  B. R. Brooks,  
 G. K. L. Chan,  C. J. Cramer,  M. S. Gordon,  W. J. Hehre,  A. Klamt,  
 M. W. Schmidt,  C. D. Sherrill,  D. G. Truhlar,  A. Aspuru-Guzik,  R. Baer,  
 A. T. Bell,  N. A. Besley,  Jeng-Da Chai,  A. E. DePrince, III,  
 R. A. DiStasio Jr.,  A. Dreuw,  B. D. Dunietz,  T. R. Furlani,  
 Chao-Ping Hsu,  Yousung Jung,  Jing Kong,  D. S. Lambrecht,  WanZhen Liang,  
 C. Ochsenfeld,  V. A. Rassolov,  L. V. Slipchenko,  J. E. Subotnik,  
 T. Van Voorhis,  J. M. Herbert,  A. I. Krylov,  P. M. W. Gill,  M. Head-Gordon

 Contributors to earlier versions of Q-Chem not listed above: 
 R. D. Adamson,  B. Austin,  J. Baker,  G. J. O. Beran,  K. Brandhorst,  
 S. T. Brown,  E. F. C. Byrd,  A. K. Chakraborty,  C.-L. Cheng,  
 Siu Hung Chien,  D. M. Chipman,  D. L. Crittenden,  H. Dachsel,  
 R. J. Doerksen,  A. D. Dutoi,  L. Fusti-Molnar,  W. A. Goddard III,  
 A. Golubeva-Zadorozhnaya,  S. R. Gwaltney,  G. Hawkins,  A. Heyden,  
 S. Hirata,  G. Kedziora,  F. J. Keil,  C. Kelley,  Jihan Kim,  R. A. King,  
 R. Z. Khaliullin,  P. P. Korambath,  W. Kurlancheek,  A. M. Lee,  M. S. Lee,  
 S. V. Levchenko,  Ching Yeh Lin,  D. Liotard,  R. C. Lochan,  I. Lotan,  
 P. E. Maslen,  N. Nair,  D. P. O'Neill,  D. Neuhauser,  E. Neuscamman,  
 C. M. Oana,  R. Olson,  B. Peters,  R. Peverati,  P. A. Pieniazek,  
 Y. M. Rhee,  J. Ritchie,  M. A. Rohrdanz,  E. Rosta,  N. J. Russ,  
 H. F. Schaefer III,  N. E. Schultz,  N. Shenvi,  A. C. Simmonett,  A. Sodt,  
 D. Stuck,  K. S. Thanthiriwatte,  V. Vanovschi,  Tao Wang,  A. Warshel,  
 C. F. Williams,  Q. Wu,  X. Xu,  W. Zhang

 Please cite Q-Chem as follows:
 Y. Shao et al., Mol. Phys. 113, 184-215 (2015)
 DOI: 10.1080/00268976.2014.952696

 Q-Chem 5.1.1 for Intel X86 EM64T Linux

 Parts of Q-Chem use Armadillo 8.300.2 (Tropical Shenanigans).
 http://arma.sourceforge.net/

 Q-Chem begins on Fri Oct 30 13:31:01 2020  

Host: n0080.mhg0
0

     Scratch files written to /local/scratch/users/yhljason/SO-trip_LRC-wPBEh_aug-pc-4.inp20201030131744//
Input Ideriv = 2
Curr. Ideriv = -1
Max.  Ideriv = 2

Checking the input file for inconsistencies... 	...done.

--------------------------------------------------------------
User input:
--------------------------------------------------------------
$molecule
0 3
S1      0.0000  0.0000  0.0000
O2      0.0000  0.0000  1.4811
$end

$rem
jobtype sp
method LRC-wPBEh
xc_grid 000099000590
basis aug-pc-4
max_scf_cycles 200
thresh 14
scf_convergence 8
scf_algorithm gdm
symmetry false
sym_ignore true
unrestricted True
gen_scfman true
internal_stability_iter 15
internal_stability_davidson_iter 200
mem_total 64000
mem_static 1500
n_frozen_core 0
$end



--------------------------------------------------------------
 ----------------------------------------------------------------
             Standard Nuclear Orientation (Angstroms)
    I     Atom           X                Y                Z
 ----------------------------------------------------------------
    1      S       0.0000000000     0.0000000000     0.0000000000
    2      O       0.0000000000     0.0000000000     1.4811000000
 ----------------------------------------------------------------
 Nuclear Repulsion Energy =    45.7326871801 hartrees
 There are       13 alpha and       11 beta electrons
 Requested basis set is aug-pc-4
 There are 64 shells and 286 basis functions

 Total QAlloc Memory Limit  64000 MB
 Mega-Array Size      1467 MB
 MEM_STATIC part      1500 MB

                       Distance Matrix (Angstroms)
             S (  1)
   O (  2)  1.481100
 
 A cutoff of  1.0D-14 yielded   2072 shell pairs
 There are     41768 function pairs (     82205 Cartesian)
 
 -------------------------------------------------------
 OpenMP Integral Computing Module                       
 Release: version 1.0, May 2013, Q-Chem Inc. Pittsburgh 
 -------------------------------------------------------
 Integral Job Info:
 Integral job number is                      11
 Integral operator is                         1
 short-range coefficients              20000000
 long-range coefficients              100000000
 Omega coefficients                         200
 if combine SR and LR in K                    1
 Integral screening is                        0
 Integral computing path is                   2
 max size of driver memory is           6400000
 size of driver memory is               5498286
 size of scratch memory is             28418842
 max col of scratch BK array             194481
 max len of scratch array in speh3         5572
 max len of scratch index in speh4           72
 max int batch size is                      520
 min int batch size is                       52
 fixed nKL is                                 7
 max L of basis functions is                  5
 order of int derivative is                   0
 number of shells is                         64
 number of basis is                         400
 number of cartesian basis is               400
 number of contracted shell pairs          2072
 number of primitive shell pairs           9079
 maxK2 (contraction) of shell pair          225
 max number of K2 of shell pair               1
 max number of CS2 of shell pair            170
 max number of PS2 of shell pair            528
 mem total for path MDJ                  956866
 -------------------------------------------------------
 Smallest overlap matrix eigenvalue = 7.15E-06

 Scale SEOQF with 1.000000e-01/1.000000e-01/1.000000e-01

 Standard Electronic Orientation quadrupole field applied
 Nucleus-field energy     =    -0.0000000019 hartrees
 Guess from superposition of atomic densities
 Warning:  Energy on first SCF cycle will be non-variational
 SAD guess density has 24.000000 electrons

 -----------------------------------------------------------------------
  General SCF calculation program by
  Eric Jon Sundstrom, Paul Horn, Yuezhi Mao, Dmitri Zuev, Alec White,
  David Stuck, Shaama M.S., Shane Yost, Joonho Lee, David Small,
  Daniel Levine, Susi Lehtola, Hugh Burton, Evgeny Epifanovsky
 -----------------------------------------------------------------------
 Exchange:     0.2000 Hartree-Fock + 0.8000 wPBE + LR-HF
 Correlation:  1.0000 PBE
 Using Euler-Maclaurin-Lebedev (99,590) quadrature formula
Running Object-Oriented UKS (UHF)
performing a single roothaan step with Fock from read density so that orbitals are available to all algorithms
energy of the guess density (C=0) -473.294762828172
We will preform up to 15 macro iterations over saddle points until a stable solution is found
Energy prior to optimization (guess energy) = -473.169961265595
Begin Timing: Total SCF Calculation
Begin Timing: SCF Single Stationary Point Calculation
begin iterations for algorithm: GDM          
the SCF tolerance is set to 1.00e-08
    1    -473.1699612656      1.95e-01     00000  Descent step
    2    -473.1865270826      1.88e-01     00000  Normal BFGS step
    3    -473.2229097023      7.10e-03     00000  Normal BFGS step
    4    -473.2235599996      4.15e-03     00000  Normal BFGS step
    5    -473.2236723395      1.02e-03     00000  Normal BFGS step
    6    -473.2236793213      3.53e-04     00000  Normal BFGS step
    7    -473.2236804937      1.63e-04     00000  Normal BFGS step
    8    -473.2236806120      5.26e-05     00000  Normal BFGS step
    9    -473.2236806243      9.03e-06     00000  Normal BFGS step
   10    -473.2236806248      3.92e-06     00000  Normal BFGS step
   11    -473.2236806249      1.25e-06     00000  Normal BFGS step
   12    -473.2236806249      2.63e-07     00000  Normal BFGS step
   13    -473.2236806249      1.13e-07     00000  Normal BFGS step
   14    -473.2236806249      1.30e-07     00000  Normal BFGS step
   15    -473.2236806249      3.57e-08     00000  Normal BFGS step
   16    -473.2236806249      2.01e-09     00000 Convergence criterion met
Timing for Single Stationary Point: 2654.00s (wall), 21209.65s (cpu)
Begin Timing: Stability
===================================================
Beginning Test for Internal Stability
===================================================
generating davidson guess vectors based on koopmans excitations
    1      6.53e-01     00000 Davidson Iteration
    2      9.53e-01     00000 Davidson Iteration
    3      2.43e-01     00000 Davidson Iteration
    4      6.74e-01     00000 Davidson Iteration
    5      1.06e-01     00000 Davidson Iteration
    6      2.24e-02     00000 Davidson Iteration
    7      1.69e-02     00000 Davidson Iteration
    8      1.79e-02     00000 Davidson Iteration
    9      1.31e-02     00000 Davidson Iteration
   10      4.45e-03     00000 Davidson Iteration
   11      2.51e-03     00000 Davidson Iteration
   12      1.06e-03     00000 Davidson Iteration
   13      1.41e-03     00000 Davidson Iteration
   14      1.16e-03     00000 Davidson Iteration
   15      3.59e-04     00000 Davidson Iteration
   16      2.04e-04     00000 Davidson Iteration
   17      1.49e-04     00000 Davidson Iteration
   18      1.41e-04     00000 Davidson Iteration
   19      1.41e-04     00000 Davidson Iteration
   20      1.29e-04     00000 Davidson Iteration
   21      1.29e-04     00000 Davidson Iteration
   22      1.13e-04     00000 Davidson Iteration
   23      7.08e-05     00000 Davidson Iteration
   24      3.62e-05     00000 Davidson Converged
converged_eigenvalues
   0.2859
   0.2859
   0.3638
Threshold for negative eigenvalues: -1.0e-05
solution was a local minimum (stable)
===================================================
End Test for Internal Stability
===================================================
Our SCF solution is stable!
Timing for Total SCF: 11326.00s (wall), 90547.89s (cpu)
 Total energy in the final basis set =     -473.2236806249
<S^2> =          2.011736440
    ==================================================
              The end of Object-Oriented SCFman       
    ==================================================
 
 --------------------------------------------------------------
 
                    Orbital Energies (a.u.)
 --------------------------------------------------------------
 
 Alpha MOs
 -- Occupied --
-88.994 -19.281  -8.115  -6.066  -6.066  -6.063  -1.192  -0.784
 -0.552  -0.552  -0.545  -0.351  -0.351
 -- Virtual --
  0.026   0.032   0.036   0.036   0.067   0.076   0.076   0.077
  0.126   0.126   0.138   0.138   0.147   0.154   0.176   0.176
  0.204   0.224   0.248   0.248   0.256   0.256   0.258   0.258
  0.280   0.280   0.306   0.311   0.311   0.339   0.339   0.349
  0.374   0.374   0.401   0.401   0.425   0.438   0.438   0.461
  0.461   0.476   0.497   0.498   0.498   0.503   0.503   0.549
  0.549   0.554   0.566   0.566   0.603   0.603   0.627   0.627
  0.665   0.665   0.670   0.680   0.680   0.680   0.680   0.700
  0.709   0.709   0.719   0.719   0.761   0.767   0.767   0.794
  0.794   0.814   0.814   0.848   0.848   0.880   0.917   0.917
  0.933   0.933   0.960   0.975   0.975   1.008   1.008   1.043
  1.043   1.062   1.062   1.089   1.089   1.111   1.130   1.153
  1.153   1.156   1.156   1.186   1.186   1.201   1.259   1.415
  1.415   1.452   1.452   1.514   1.514   1.546   1.670   1.740
  1.740   1.768   1.768   1.787   1.787   1.895   1.942   1.942
  2.077   2.152   2.152   2.239   2.239   2.327   2.327   2.353
  2.353   2.398   2.693   2.693   2.715   2.715   2.719   2.731
  2.731   3.129   3.136   3.136   3.322   3.397   3.397   3.425
  3.425   3.575   3.575   3.600   3.726   3.726   3.841   4.046
  4.071   4.071   4.120   4.120   4.305   4.305   4.476   4.476
  4.518   4.971   5.063   5.063   5.063   5.063   5.229   5.229
  5.245   5.245   5.297   5.297   5.400   5.400   5.525   5.697
  5.697   5.854   5.854   5.866   5.924   5.924   6.108   6.108
  6.547   6.558   6.558   6.832   6.832   7.380   7.547   7.547
  7.941   7.941   8.030   8.333   8.333   8.355   8.355   8.537
  8.537   8.843   8.843   9.339   9.386   9.386   9.849   9.849
 10.480  10.871  11.020  11.020  11.726  11.726  11.809  11.809
 11.831  12.183  12.183  12.184  12.184  12.189  12.189  12.326
 12.326  12.539  12.584  12.584  12.665  12.665  12.752  12.752
 13.101  13.101  13.208  14.092  14.092  15.279  17.065  17.065
 17.147  17.148  17.249  17.249  17.287  17.287  17.839  17.839
 18.410  18.661  18.661  19.221  23.033  23.033  23.415  23.415
 24.386  29.896  30.180  31.997  31.997  33.290  62.759  62.759
 62.889  62.889  63.506  66.795  66.795  67.055  67.055  67.721
143.019
 
 Beta MOs
 -- Occupied --
-88.987 -19.260  -8.107  -6.060  -6.051  -6.051  -1.151  -0.711
 -0.512  -0.479  -0.479
 -- Virtual --
 -0.055  -0.055   0.028   0.035   0.037   0.037   0.072   0.076
  0.076   0.087   0.133   0.133   0.144   0.144   0.152   0.157
  0.181   0.181   0.211   0.228   0.253   0.253   0.261   0.261
  0.266   0.266   0.296   0.296   0.308   0.313   0.313   0.353
  0.353   0.354   0.390   0.390   0.423   0.423   0.436   0.441
  0.441   0.465   0.465   0.481   0.499   0.500   0.500   0.507
  0.507   0.555   0.555   0.558   0.586   0.586   0.612   0.612
  0.646   0.646   0.670   0.670   0.677   0.685   0.685   0.688
  0.688   0.719   0.722   0.722   0.730   0.730   0.764   0.771
  0.771   0.800   0.800   0.816   0.816   0.850   0.850   0.884
  0.934   0.934   0.944   0.944   0.966   0.981   0.981   1.032
  1.032   1.044   1.044   1.066   1.066   1.100   1.100   1.124
  1.139   1.158   1.158   1.160   1.160   1.195   1.195   1.213
  1.274   1.441   1.441   1.488   1.488   1.557   1.557   1.558
  1.681   1.763   1.763   1.795   1.795   1.813   1.813   1.910
  1.955   1.955   2.087   2.171   2.171   2.278   2.278   2.345
  2.345   2.371   2.371   2.406   2.747   2.747   2.749   2.752
  2.752   2.754   2.754   3.146   3.162   3.162   3.348   3.435
  3.435   3.488   3.488   3.601   3.601   3.608   3.752   3.752
  3.863   4.068   4.113   4.113   4.150   4.150   4.324   4.324
  4.517   4.517   4.532   4.986   5.088   5.088   5.092   5.092
  5.275   5.275   5.315   5.315   5.338   5.338   5.423   5.423
  5.546   5.727   5.727   5.873   5.873   5.883   5.953   5.953
  6.144   6.144   6.570   6.586   6.586   6.857   6.857   7.396
  7.571   7.571   7.963   7.963   8.050   8.393   8.393   8.395
  8.395   8.567   8.567   8.866   8.866   9.362   9.453   9.453
  9.884   9.884  10.499  10.903  11.067  11.067  11.734  11.734
 11.820  11.820  11.855  12.199  12.199  12.220  12.220  12.232
 12.232  12.354  12.354  12.554  12.606  12.606  12.685  12.685
 12.823  12.823  13.147  13.147  13.226  14.119  14.119  15.296
 17.082  17.082  17.218  17.218  17.260  17.260  17.339  17.339
 17.878  17.878  18.431  18.690  18.690  19.240  23.107  23.107
 23.456  23.456  24.412  29.925  30.202  32.043  32.043  33.310
 62.779  62.779  62.900  62.900  63.514  66.844  66.844  67.083
 67.083  67.742 143.037
 --------------------------------------------------------------
 
          Ground-State Mulliken Net Atomic Charges

     Atom                 Charge (a.u.)    Spin (a.u.)
  --------------------------------------------------------
      1 S                     0.061210       1.284302
      2 O                    -0.061210       0.715698
  --------------------------------------------------------
  Sum of atomic charges =     0.000000
  Sum of spin   charges =     2.000000

 -----------------------------------------------------------------
                    Cartesian Multipole Moments
 -----------------------------------------------------------------
    Charge (ESU x 10^10)
                 0.0000
    Dipole Moment (Debye)
         X       0.0000      Y       0.0000      Z      -1.5308
       Tot       1.5308
    Quadrupole Moments (Debye-Ang)
        XX     -17.5530     XY      -0.0000     YY     -17.5530
        XZ       0.0000     YZ      -0.0000     ZZ     -19.8660
    Octopole Moments (Debye-Ang^2)
       XXX       0.0000    XXY      -0.0000    XYY       0.0000
       YYY       0.0000    XXZ      -7.5156    XYZ       0.0000
       YYZ      -7.5156    XZZ       0.0000    YZZ       0.0000
       ZZZ     -28.5258
    Hexadecapole Moments (Debye-Ang^3)
      XXXX     -20.0275   XXXY      -0.0000   XXYY      -6.6758
      XYYY      -0.0000   YYYY     -20.0275   XXXZ       0.0000
      XXYZ       0.0000   XYYZ       0.0000   YYYZ      -0.0000
      XXZZ     -18.3852   XYZZ      -0.0000   YYZZ     -18.3852
      XZZZ       0.0000   YZZZ       0.0000   ZZZZ     -95.5568
 -----------------------------------------------------------------
Archival summary:
1\1\n0080.mhg0\SP\ProcedureUnspecified\BasisUnspecified\11(3)\yhljason\FriOct3016:43:142020FriOct3016:43:142020\0\\#,ProcedureUnspecified,BasisUnspecified,\\0,3\S\O,1,1.4811\\\@

 Total job time:  11532.70s(wall), 92156.62s(cpu) 
 Fri Oct 30 16:43:14 2020

        *************************************************************
        *                                                           *
        *  Thank you very much for using Q-Chem.  Have a nice day.  *
        *                                                           *
        *************************************************************


