Q-Chem Developer Version!
                  Welcome to Q-Chem
     A Quantum Leap Into The Future Of Chemistry


 Q-Chem 5.1, Q-Chem, Inc., Pleasanton, CA (2018)

 Yihan Shao,  Zhengting Gan,  E. Epifanovsky,  A. T. B. Gilbert,  M. Wormit,  
 J. Kussmann,  A. W. Lange,  A. Behn,  Jia Deng,  Xintian Feng,  D. Ghosh,  
 M. Goldey,  P. R. Horn,  L. D. Jacobson,  I. Kaliman,  T. Kus,  A. Landau,  
 Jie Liu,  E. I. Proynov,  R. M. Richard,  R. P. Steele,  E. J. Sundstrom,  
 H. L. Woodcock III,  P. M. Zimmerman,  D. Zuev,  B. Albrecht,  E. Alguire,  
 S. A. Baeppler,  D. Barton,  Z. Benda,  Y. A. Bernard,  E. J. Berquist,  
 K. B. Bravaya,  H. Burton,  D. Casanova,  Chun-Min Chang,  Yunqing Chen,  
 A. Chien,  K. D. Closser,  M. P. Coons,  S. Coriani,  S. Dasgupta,  
 A. L. Dempwolff,  M. Diedenhofen,  Hainam Do,  R. G. Edgar,  Po-Tung Fang,  
 S. Faraji,  S. Fatehi,  Qingguo Feng,  K. D. Fenk,  J. Fosso-Tande,  
 Qinghui Ge,  A. Ghysels,  G. Gidofalvi,  J. Gomes,  J. Gonthier,  A. Gunina,  
 D. Hait,  M. W. D. Hanson-Heine,  P. H. P. Harbach,  A. W. Hauser,  
 J. E. Herr,  E. G. Hohenstein,  Z. C. Holden,  Kerwin Hui,  B. C. Huynh,  
 T.-C. Jagau,  Hyunjun Ji,  B. Kaduk,  K. Khistyaev,  Jaehoon Kim,  
 P. Klunzinger,  K. Koh,  D. Kosenkov,  L. Koulias,  T. Kowalczyk,  
 C. M. Krauter,  A. Kunitsa,  Ka Un Lao,  A. Laurent,  K. V. Lawler,  
 Joonho Lee,  D. Lefrancois,  S. Lehtola,  D. S. Levine,  Yi-Pei Li,  
 You-Sheng Lin,  Fenglai Liu,  E. Livshits,  A. Luenser,  P. Manohar,  
 E. Mansoor,  S. F. Manzer,  Shan-Ping Mao,  Yuezhi Mao,  N. Mardirossian,  
 A. V. Marenich,  T. Markovich,  L. A. Martinez-Martinez,  S. A. Maurer,  
 N. J. Mayhall,  S. C. McKenzie,  J.-M. Mewes,  A. F. Morrison,  
 J. W. Mullinax,  K. Nanda,  T. S. Nguyen-Beck,  R. Olivares-Amaya,  
 J. A. Parkhill,  T. M. Perrine,  F. Plasser,  P. Pokhilko,  S. Prager,  
 A. Prociuk,  E. Ramos,  D. R. Rehn,  F. Rob,  M. Schneider,  N. Sergueev,  
 S. M. Sharada,  S. Sharma,  D. W. Small,  T. Stauch,  T. Stein,  
 Yu-Chuan Su,  A. J. W. Thom,  A. Tkatchenko,  T. Tsuchimochi,  N. M. Tubman,  
 L. Vogt,  M. L. Vidal,  O. Vydrov,  M. A. Watson,  J. Wenzel,  
 M. de Wergifosse,  T. A. Wesolowski,  A. White,  J. Witte,  A. Yamada,  
 Jun Yang,  K. Yao,  S. Yeganeh,  S. R. Yost,  Zhi-Qiang You,  A. Zech,  
 Igor Ying Zhang,  Xing Zhang,  Yan Zhao,  Ying Zhu,  B. R. Brooks,  
 G. K. L. Chan,  C. J. Cramer,  M. S. Gordon,  W. J. Hehre,  A. Klamt,  
 M. W. Schmidt,  C. D. Sherrill,  D. G. Truhlar,  A. Aspuru-Guzik,  R. Baer,  
 A. T. Bell,  N. A. Besley,  Jeng-Da Chai,  A. E. DePrince, III,  
 R. A. DiStasio Jr.,  A. Dreuw,  B. D. Dunietz,  T. R. Furlani,  
 Chao-Ping Hsu,  Yousung Jung,  Jing Kong,  D. S. Lambrecht,  WanZhen Liang,  
 C. Ochsenfeld,  V. A. Rassolov,  L. V. Slipchenko,  J. E. Subotnik,  
 T. Van Voorhis,  J. M. Herbert,  A. I. Krylov,  P. M. W. Gill,  M. Head-Gordon

 Contributors to earlier versions of Q-Chem not listed above: 
 R. D. Adamson,  B. Austin,  J. Baker,  G. J. O. Beran,  K. Brandhorst,  
 S. T. Brown,  E. F. C. Byrd,  A. K. Chakraborty,  C.-L. Cheng,  
 Siu Hung Chien,  D. M. Chipman,  D. L. Crittenden,  H. Dachsel,  
 R. J. Doerksen,  A. D. Dutoi,  L. Fusti-Molnar,  W. A. Goddard III,  
 A. Golubeva-Zadorozhnaya,  S. R. Gwaltney,  G. Hawkins,  A. Heyden,  
 S. Hirata,  G. Kedziora,  F. J. Keil,  C. Kelley,  Jihan Kim,  R. A. King,  
 R. Z. Khaliullin,  P. P. Korambath,  W. Kurlancheek,  A. M. Lee,  M. S. Lee,  
 S. V. Levchenko,  Ching Yeh Lin,  D. Liotard,  R. C. Lochan,  I. Lotan,  
 P. E. Maslen,  N. Nair,  D. P. O'Neill,  D. Neuhauser,  E. Neuscamman,  
 C. M. Oana,  R. Olson,  B. Peters,  R. Peverati,  P. A. Pieniazek,  
 Y. M. Rhee,  J. Ritchie,  M. A. Rohrdanz,  E. Rosta,  N. J. Russ,  
 H. F. Schaefer III,  N. E. Schultz,  N. Shenvi,  A. C. Simmonett,  A. Sodt,  
 D. Stuck,  K. S. Thanthiriwatte,  V. Vanovschi,  Tao Wang,  A. Warshel,  
 C. F. Williams,  Q. Wu,  X. Xu,  W. Zhang

 Please cite Q-Chem as follows:
 Y. Shao et al., Mol. Phys. 113, 184-215 (2015)
 DOI: 10.1080/00268976.2014.952696

 Q-Chem 5.1.1 for Intel X86 EM64T Linux

 Parts of Q-Chem use Armadillo 8.300.2 (Tropical Shenanigans).
 http://arma.sourceforge.net/

 Q-Chem begins on Thu Jul  9 03:05:09 2020  

Host: n0085.mhg0
0

     Scratch files written to /local/scratch/users/yhljason/C2H_M06-L_aug-pc-4.inp20200709030445//
Input Ideriv = 2
Curr. Ideriv = -1
Max.  Ideriv = 2
Input Ideriv = 1
Curr. Ideriv = 2
Max.  Ideriv = 1

Checking the input file for inconsistencies... 	...done.

--------------------------------------------------------------
User input:
--------------------------------------------------------------
$molecule
0 2
C1	0.0000	0.0000	0.0000
C2	0.0000	0.0000	-1.2165
H3	0.0000	0.0000	1.0465
$end

$rem
jobtype sp
method M06-L
xc_grid 000099000590
basis aug-pc-4
max_scf_cycles 200
thresh 14
scf_convergence 8
scf_algorithm gdm
symmetry false
sym_ignore true
unrestricted true
gen_scfman true
internal_stability_iter 15
internal_stability_davidson_iter 200
mem_total 64000
mem_static 1500
n_frozen_core 0
$end


--------------------------------------------------------------
 ----------------------------------------------------------------
             Standard Nuclear Orientation (Angstroms)
    I     Atom           X                Y                Z
 ----------------------------------------------------------------
    1      C       0.0000000000     0.0000000000     0.0000000000
    2      C       0.0000000000     0.0000000000    -1.2165000000
    3      H       0.0000000000     0.0000000000     1.0465000000
 ----------------------------------------------------------------
 Nuclear Repulsion Energy =    20.0970073115 hartrees
 There are        7 alpha and        6 beta electrons
 Requested basis set is aug-pc-4
 There are 90 shells and 378 basis functions

 Total QAlloc Memory Limit  64000 MB
 Mega-Array Size      1467 MB
 MEM_STATIC part      1500 MB

                       Distance Matrix (Angstroms)
             C (  1)   C (  2)
   C (  2)  1.216500
   H (  3)  1.046500  2.263000
 
 A cutoff of  1.0D-14 yielded   4071 shell pairs
 There are     72439 function pairs (    136168 Cartesian)
 
 -------------------------------------------------------
 OpenMP Integral Computing Module                       
 Release: version 1.0, May 2013, Q-Chem Inc. Pittsburgh 
 -------------------------------------------------------
 Integral Job Info:
 Integral job number is                      11
 Integral operator is                         1
 short-range coefficients                     0
 long-range coefficients              100000000
 Omega coefficients                           0
 if combine SR and LR in K                    0
 Integral screening is                        0
 Integral computing path is                   2
 max size of driver memory is           6400000
 size of driver memory is               5498286
 size of scratch memory is             29792225
 max col of scratch BK array             194481
 max len of scratch array in speh3         5572
 max len of scratch index in speh4           72
 max int batch size is                      520
 min int batch size is                       52
 fixed nKL is                                25
 max L of basis functions is                  5
 order of int derivative is                   0
 number of shells is                         90
 number of basis is                         517
 number of cartesian basis is               517
 number of contracted shell pairs          4071
 number of primitive shell pairs           9032
 maxK2 (contraction) of shell pair          121
 max number of K2 of shell pair               1
 max number of CS2 of shell pair            443
 max number of PS2 of shell pair            451
 mem total for path MDJ                  998666
 -------------------------------------------------------
 Smallest overlap matrix eigenvalue = 3.65E-07
 Linear dependence detected in AO basis
 Number of orthogonalized atomic orbitals = 376
 Maximum deviation from orthogonality = 1.088E-10

 Scale SEOQF with 1.000000e-01/1.000000e-01/1.000000e-01

 Standard Electronic Orientation quadrupole field applied
 Nucleus-field energy     =    -0.0000000011 hartrees
 Guess from superposition of atomic densities
 Warning:  Energy on first SCF cycle will be non-variational
 SAD guess density has 13.000000 electrons

 -----------------------------------------------------------------------
  General SCF calculation program by
  Eric Jon Sundstrom, Paul Horn, Yuezhi Mao, Dmitri Zuev, Alec White,
  David Stuck, Shaama M.S., Shane Yost, Joonho Lee, David Small,
  Daniel Levine, Susi Lehtola, Hugh Burton, Evgeny Epifanovsky
 -----------------------------------------------------------------------
 Exchange:  M06-L      Correlation:  M06-L
 Using Euler-Maclaurin-Lebedev (99,590) quadrature formula
Running Object-Oriented UKS (UHF)
performing a single roothaan step with Fock from read density so that orbitals are available to all algorithms
energy of the guess density (C=0) -76.814648076045
We will preform up to 15 macro iterations over saddle points until a stable solution is found
Energy prior to optimization (guess energy) = -76.559975939111
Begin Timing: Total SCF Calculation
Begin Timing: SCF Single Stationary Point Calculation
begin iterations for algorithm: GDM          
the SCF tolerance is set to 1.00e-08
    1     -76.5599759391      2.88e-01     00000  Descent step
    2     -76.4812747098      7.97e-01     00000 Line search: overstep
    3     -76.6008743773      8.62e-02     00000  Normal BFGS step
    4     -76.6209113834      1.84e-01     00000  Normal BFGS step
    5     -76.6152439455      1.73e-01     00000 Line search: overstep
    6     -76.6328167815      6.57e-02     00000  Normal BFGS step
    7     -76.6360412810      5.38e-02     00000  Normal BFGS step
    8     -76.6390374755      1.89e-01     00000  Normal BFGS step
    9     -76.6399918747      1.62e-02     00000  Normal BFGS step
   10     -76.6403822020      7.91e-03     00000  Normal BFGS step
   11     -76.6404267996      6.37e-03     00000  Normal BFGS step
   12     -76.6404880001      2.75e-03     00000  Normal BFGS step
   13     -76.6404942450      1.95e-03     00000  Normal BFGS step
   14     -76.6404961070      2.34e-04     00000  Normal BFGS step
   15     -76.6404963963      1.32e-04     00000  Normal BFGS step
   16     -76.6404964411      4.31e-05     00000  Normal BFGS step
   17     -76.6404964478      9.42e-06     00000  Normal BFGS step
   18     -76.6404964482      5.80e-06     00000  Normal BFGS step
   19     -76.6404964483      7.26e-07     00000  Normal BFGS step
   20     -76.6404964483      6.01e-07     00000  Normal BFGS step
   21     -76.6404964483      2.29e-07     00000  Normal BFGS step
   22     -76.6404964483      4.96e-07     00000  Normal BFGS step
   23     -76.6404964483      7.61e-08     00000  Normal BFGS step
   24     -76.6404964483      9.52e-08     00000  Normal BFGS step
   25     -76.6404964483      1.66e-08     00000  Normal BFGS step
   26     -76.6404964483      1.06e-08     00000  Normal BFGS step
   27     -76.6404964483      2.60e-09     00000 Convergence criterion met
Timing for Single Stationary Point: 813.00s (wall), 6420.36s (cpu)
Begin Timing: Stability
===================================================
Beginning Test for Internal Stability
===================================================
generating davidson guess vectors based on koopmans excitations
    1      1.26e+00     00000 Davidson Iteration
    2      2.21e-01     00000 Davidson Iteration
    3      7.56e-02     00000 Davidson Iteration
    4      2.92e-02     00000 Davidson Iteration
    5      7.25e-03     00000 Davidson Iteration
    6      3.25e-03     00000 Davidson Iteration
    7      9.90e-04     00000 Davidson Iteration
    8      2.78e-04     00000 Davidson Iteration
    9      1.01e-04     00000 Davidson Iteration
   10      2.76e-05     00000 Davidson Converged
converged_eigenvalues
   0.0458
   0.0458
Threshold for negative eigenvalues: -1.0e-05
solution was a local minimum (stable)
===================================================
End Test for Internal Stability
===================================================
Our SCF solution is stable!
Timing for Total SCF: 4837.00s (wall), 38301.79s (cpu)
 Total energy in the final basis set =      -76.6404964483
<S^2> =          0.786680171
    ==================================================
              The end of Object-Oriented SCFman       
    ==================================================
 
 --------------------------------------------------------------
 
                    Orbital Energies (a.u.)
 --------------------------------------------------------------
 
 Alpha MOs
 -- Occupied --
-10.113 -10.073  -0.731  -0.527  -0.364  -0.290  -0.290
 -- Virtual --
 -0.016  -0.016  -0.001   0.007   0.021   0.021   0.034   0.041
  0.041   0.051   0.056   0.083   0.088   0.088   0.090   0.090
  0.113   0.113   0.114   0.125   0.125   0.132   0.132   0.148
  0.172   0.176   0.187   0.192   0.192   0.202   0.202   0.236
  0.236   0.244   0.244   0.256   0.256   0.256   0.256   0.259
  0.271   0.271   0.289   0.289   0.295   0.307   0.307   0.307
  0.314   0.314   0.339   0.339   0.346   0.358   0.373   0.373
  0.391   0.391   0.393   0.412   0.412   0.431   0.431   0.447
  0.474   0.474   0.481   0.481   0.485   0.485   0.502   0.502
  0.507   0.509   0.509   0.525   0.525   0.535   0.535   0.539
  0.554   0.554   0.574   0.574   0.575   0.575   0.583   0.600
  0.600   0.603   0.603   0.634   0.634   0.645   0.652   0.654
  0.654   0.675   0.675   0.708   0.718   0.718   0.732   0.732
  0.758   0.758   0.759   0.759   0.778   0.778   0.788   0.794
  0.800   0.800   0.801   0.801   0.808   0.808   0.850   0.850
  0.876   0.876   0.890   0.891   0.891   0.904   0.904   0.928
  0.993   1.016   1.016   1.051   1.069   1.069   1.145   1.145
  1.206   1.229   1.243   1.243   1.280   1.280   1.298   1.298
  1.388   1.388   1.405   1.415   1.585   1.585   1.599   1.613
  1.613   1.751   1.751   1.806   1.806   1.885   1.918   1.918
  1.999   1.999   2.084   2.128   2.133   2.133   2.251   2.251
  2.259   2.259   2.345   2.352   2.352   2.378   2.594   2.689
  2.689   2.775   2.775   2.776   2.870   2.870   3.088   3.209
  3.209   3.520   3.520   3.571   3.668   3.668   3.693   3.693
  3.804   4.055   4.055   4.083   4.083   4.091   4.147   4.147
  4.169   4.169   4.354   4.354   4.387   4.387   4.429   4.503
  4.503   4.521   4.521   4.539   4.539   4.540   4.729   4.729
  4.790   4.790   4.937   4.937   4.945   5.031   5.031   5.213
  5.213   5.291   5.410   5.410   5.428   5.428   5.488   5.592
  5.772   5.772   6.285   6.421   6.421   6.483   6.483   6.599
  6.760   6.760   6.921   7.094   7.094   7.507   7.590   7.590
  7.927   8.058   8.058   8.426   8.898   8.898   9.274   9.274
  9.627   9.868  10.252  10.252  10.340  10.340  10.458  10.458
 10.543  10.543  10.654  10.654  10.680  10.680  10.877  10.877
 10.887  11.034  11.034  11.254  11.254  11.400  11.423  11.423
 11.507  11.507  11.655  11.829  11.829  11.838  11.838  11.938
 11.938  11.987  11.987  12.073  12.073  12.115  12.115  12.119
 12.119  12.142  12.142  12.320  12.320  12.326  12.433  12.433
 12.589  12.589  12.687  12.835  12.835  13.040  13.040  13.259
 13.259  13.323  13.360  13.360  13.495  13.495  13.606  14.103
 14.103  14.383  14.510  14.510  15.536  15.744  15.745  16.461
 16.643  16.643  16.783  17.060  17.060  17.704  17.704  17.925
 18.307  18.307  18.401  18.470  18.470  19.840  19.840  19.906
 19.906  20.460  21.287  21.291  21.291  23.972  24.903  24.903
 25.617  32.347  32.347  32.434  32.434  32.585  32.585  33.779
 33.779  33.833  35.914  41.544  75.590  78.019  90.733  93.295
 93.295
 
 Beta MOs
 -- Occupied --
-10.094 -10.073  -0.713  -0.516  -0.271  -0.271
 -- Virtual --
 -0.242  -0.002   0.007   0.007   0.017   0.018   0.018   0.039
  0.045   0.045   0.053   0.064   0.084   0.084   0.088   0.088
  0.093   0.115   0.117   0.117   0.133   0.133   0.135   0.135
  0.148   0.167   0.182   0.186   0.186   0.194   0.212   0.212
  0.219   0.237   0.237   0.252   0.252   0.252   0.252   0.259
  0.259   0.274   0.274   0.294   0.294   0.298   0.313   0.313
  0.321   0.321   0.321   0.334   0.339   0.339   0.368   0.378
  0.378   0.393   0.393   0.393   0.404   0.404   0.434   0.434
  0.442   0.476   0.476   0.487   0.487   0.508   0.508   0.508
  0.511   0.511   0.512   0.512   0.532   0.532   0.538   0.538
  0.554   0.559   0.559   0.571   0.571   0.580   0.580   0.585
  0.600   0.600   0.614   0.614   0.642   0.642   0.645   0.655
  0.655   0.674   0.676   0.676   0.731   0.732   0.732   0.759
  0.759   0.771   0.771   0.777   0.777   0.782   0.782   0.785
  0.795   0.795   0.806   0.806   0.812   0.816   0.816   0.868
  0.868   0.881   0.882   0.882   0.897   0.897   0.897   0.897
  0.919   0.994   1.019   1.019   1.041   1.073   1.073   1.122
  1.154   1.154   1.236   1.247   1.247   1.282   1.282   1.300
  1.300   1.378   1.401   1.401   1.421   1.590   1.590   1.602
  1.618   1.618   1.765   1.765   1.814   1.814   1.850   1.916
  1.916   1.916   2.028   2.028   2.048   2.152   2.152   2.218
  2.246   2.246   2.251   2.251   2.322   2.369   2.369   2.477
  2.675   2.678   2.678   2.763   2.763   2.876   2.876   3.071
  3.219   3.219   3.510   3.510   3.546   3.682   3.682   3.707
  3.717   3.717   4.090   4.090   4.090   4.097   4.097   4.169
  4.169   4.173   4.173   4.197   4.381   4.381   4.397   4.453
  4.453   4.503   4.503   4.524   4.524   4.572   4.572   4.651
  4.663   4.663   4.803   4.803   4.935   4.961   4.961   5.056
  5.056   5.118   5.118   5.263   5.354   5.354   5.460   5.460
  5.514   5.771   5.771   6.132   6.421   6.421   6.449   6.449
  6.550   6.768   6.768   6.848   7.097   7.097   7.419   7.551
  7.551   7.860   7.982   7.982   8.376   9.056   9.056   9.309
  9.309   9.458   9.942  10.239  10.239  10.262  10.262  10.427
 10.427  10.519  10.576  10.576  10.618  10.618  10.707  10.707
 10.898  10.898  10.988  11.034  11.034  11.329  11.329  11.345
 11.470  11.470  11.486  11.486  11.715  11.715  11.862  11.862
 11.882  11.944  11.944  11.946  11.946  11.971  11.971  12.034
 12.034  12.129  12.129  12.189  12.189  12.365  12.365  12.416
 12.416  12.541  12.581  12.581  12.704  12.704  12.819  12.819
 13.005  13.005  13.058  13.361  13.361  13.418  13.514  13.514
 14.085  14.086  14.097  14.260  14.260  15.563  15.682  15.682
 16.423  16.569  16.569  16.896  17.123  17.123  17.742  17.742
 17.969  18.333  18.333  18.459  18.459  18.538  19.853  19.853
 20.118  20.119  20.892  21.571  21.626  21.626  23.973  25.026
 25.026  25.938  32.324  32.324  32.432  32.432  32.506  32.506
 33.637  33.693  33.693  35.895  42.173  75.510  78.025  92.309
 94.315  94.315
 --------------------------------------------------------------
 
          Ground-State Mulliken Net Atomic Charges

     Atom                 Charge (a.u.)    Spin (a.u.)
  --------------------------------------------------------
      1 C                     0.359871      -0.308708
      2 C                    -0.453517       1.473685
      3 H                     0.093646      -0.164977
  --------------------------------------------------------
  Sum of atomic charges =     0.000000
  Sum of spin   charges =     1.000000

 -----------------------------------------------------------------
                    Cartesian Multipole Moments
 -----------------------------------------------------------------
    Charge (ESU x 10^10)
                 0.0000
    Dipole Moment (Debye)
         X      -0.0000      Y      -0.0000      Z       0.7825
       Tot       0.7825
    Quadrupole Moments (Debye-Ang)
        XX     -12.5643     XY      -0.0000     YY     -12.5643
        XZ      -0.0000     YZ       0.0000     ZZ      -8.9161
    Octopole Moments (Debye-Ang^2)
       XXX      -0.0000    XXY      -0.0000    XYY      -0.0000
       YYY      -0.0000    XXZ       6.5383    XYZ       0.0000
       YYZ       6.5383    XZZ       0.0000    YZZ      -0.0000
       ZZZ      16.8873
    Hexadecapole Moments (Debye-Ang^3)
      XXXX     -14.7118   XXXY       0.0000   XXYY      -4.9039
      XYYY       0.0000   YYYY     -14.7118   XXXZ       0.0000
      XXYZ       0.0000   XYYZ       0.0000   YYYZ       0.0000
      XXZZ     -13.3388   XYZZ      -0.0000   YYZZ     -13.3388
      XZZZ      -0.0000   YZZZ       0.0000   ZZZZ     -56.9043
 -----------------------------------------------------------------
Archival summary:
1\1\n0085.mhg0\SP\ProcedureUnspecified\BasisUnspecified\21(2)\yhljason\ThuJul904:26:402020ThuJul904:26:402020\0\\#,ProcedureUnspecified,BasisUnspecified,\\0,2\C\H,1,1.0465\C,1,1.2165,2,180\\\@

 Total job time:  4890.70s(wall), 38684.12s(cpu) 
 Thu Jul  9 04:26:40 2020

        *************************************************************
        *                                                           *
        *  Thank you very much for using Q-Chem.  Have a nice day.  *
        *                                                           *
        *************************************************************


