Q-Chem Developer Version!
                  Welcome to Q-Chem
     A Quantum Leap Into The Future Of Chemistry


 Q-Chem 5.1, Q-Chem, Inc., Pleasanton, CA (2018)

 Yihan Shao,  Zhengting Gan,  E. Epifanovsky,  A. T. B. Gilbert,  M. Wormit,  
 J. Kussmann,  A. W. Lange,  A. Behn,  Jia Deng,  Xintian Feng,  D. Ghosh,  
 M. Goldey,  P. R. Horn,  L. D. Jacobson,  I. Kaliman,  T. Kus,  A. Landau,  
 Jie Liu,  E. I. Proynov,  R. M. Richard,  R. P. Steele,  E. J. Sundstrom,  
 H. L. Woodcock III,  P. M. Zimmerman,  D. Zuev,  B. Albrecht,  E. Alguire,  
 S. A. Baeppler,  D. Barton,  Z. Benda,  Y. A. Bernard,  E. J. Berquist,  
 K. B. Bravaya,  H. Burton,  D. Casanova,  Chun-Min Chang,  Yunqing Chen,  
 A. Chien,  K. D. Closser,  M. P. Coons,  S. Coriani,  S. Dasgupta,  
 A. L. Dempwolff,  M. Diedenhofen,  Hainam Do,  R. G. Edgar,  Po-Tung Fang,  
 S. Faraji,  S. Fatehi,  Qingguo Feng,  K. D. Fenk,  J. Fosso-Tande,  
 Qinghui Ge,  A. Ghysels,  G. Gidofalvi,  J. Gomes,  J. Gonthier,  A. Gunina,  
 D. Hait,  M. W. D. Hanson-Heine,  P. H. P. Harbach,  A. W. Hauser,  
 J. E. Herr,  E. G. Hohenstein,  Z. C. Holden,  Kerwin Hui,  B. C. Huynh,  
 T.-C. Jagau,  Hyunjun Ji,  B. Kaduk,  K. Khistyaev,  Jaehoon Kim,  
 P. Klunzinger,  K. Koh,  D. Kosenkov,  L. Koulias,  T. Kowalczyk,  
 C. M. Krauter,  A. Kunitsa,  Ka Un Lao,  A. Laurent,  K. V. Lawler,  
 Joonho Lee,  D. Lefrancois,  S. Lehtola,  D. S. Levine,  Yi-Pei Li,  
 You-Sheng Lin,  Fenglai Liu,  E. Livshits,  A. Luenser,  P. Manohar,  
 E. Mansoor,  S. F. Manzer,  Shan-Ping Mao,  Yuezhi Mao,  N. Mardirossian,  
 A. V. Marenich,  T. Markovich,  L. A. Martinez-Martinez,  S. A. Maurer,  
 N. J. Mayhall,  S. C. McKenzie,  J.-M. Mewes,  A. F. Morrison,  
 J. W. Mullinax,  K. Nanda,  T. S. Nguyen-Beck,  R. Olivares-Amaya,  
 J. A. Parkhill,  T. M. Perrine,  F. Plasser,  P. Pokhilko,  S. Prager,  
 A. Prociuk,  E. Ramos,  D. R. Rehn,  F. Rob,  M. Schneider,  N. Sergueev,  
 S. M. Sharada,  S. Sharma,  D. W. Small,  T. Stauch,  T. Stein,  
 Yu-Chuan Su,  A. J. W. Thom,  A. Tkatchenko,  T. Tsuchimochi,  N. M. Tubman,  
 L. Vogt,  M. L. Vidal,  O. Vydrov,  M. A. Watson,  J. Wenzel,  
 M. de Wergifosse,  T. A. Wesolowski,  A. White,  J. Witte,  A. Yamada,  
 Jun Yang,  K. Yao,  S. Yeganeh,  S. R. Yost,  Zhi-Qiang You,  A. Zech,  
 Igor Ying Zhang,  Xing Zhang,  Yan Zhao,  Ying Zhu,  B. R. Brooks,  
 G. K. L. Chan,  C. J. Cramer,  M. S. Gordon,  W. J. Hehre,  A. Klamt,  
 M. W. Schmidt,  C. D. Sherrill,  D. G. Truhlar,  A. Aspuru-Guzik,  R. Baer,  
 A. T. Bell,  N. A. Besley,  Jeng-Da Chai,  A. E. DePrince, III,  
 R. A. DiStasio Jr.,  A. Dreuw,  B. D. Dunietz,  T. R. Furlani,  
 Chao-Ping Hsu,  Yousung Jung,  Jing Kong,  D. S. Lambrecht,  WanZhen Liang,  
 C. Ochsenfeld,  V. A. Rassolov,  L. V. Slipchenko,  J. E. Subotnik,  
 T. Van Voorhis,  J. M. Herbert,  A. I. Krylov,  P. M. W. Gill,  M. Head-Gordon

 Contributors to earlier versions of Q-Chem not listed above: 
 R. D. Adamson,  B. Austin,  J. Baker,  G. J. O. Beran,  K. Brandhorst,  
 S. T. Brown,  E. F. C. Byrd,  A. K. Chakraborty,  C.-L. Cheng,  
 Siu Hung Chien,  D. M. Chipman,  D. L. Crittenden,  H. Dachsel,  
 R. J. Doerksen,  A. D. Dutoi,  L. Fusti-Molnar,  W. A. Goddard III,  
 A. Golubeva-Zadorozhnaya,  S. R. Gwaltney,  G. Hawkins,  A. Heyden,  
 S. Hirata,  G. Kedziora,  F. J. Keil,  C. Kelley,  Jihan Kim,  R. A. King,  
 R. Z. Khaliullin,  P. P. Korambath,  W. Kurlancheek,  A. M. Lee,  M. S. Lee,  
 S. V. Levchenko,  Ching Yeh Lin,  D. Liotard,  R. C. Lochan,  I. Lotan,  
 P. E. Maslen,  N. Nair,  D. P. O'Neill,  D. Neuhauser,  E. Neuscamman,  
 C. M. Oana,  R. Olson,  B. Peters,  R. Peverati,  P. A. Pieniazek,  
 Y. M. Rhee,  J. Ritchie,  M. A. Rohrdanz,  E. Rosta,  N. J. Russ,  
 H. F. Schaefer III,  N. E. Schultz,  N. Shenvi,  A. C. Simmonett,  A. Sodt,  
 D. Stuck,  K. S. Thanthiriwatte,  V. Vanovschi,  Tao Wang,  A. Warshel,  
 C. F. Williams,  Q. Wu,  X. Xu,  W. Zhang

 Please cite Q-Chem as follows:
 Y. Shao et al., Mol. Phys. 113, 184-215 (2015)
 DOI: 10.1080/00268976.2014.952696

 Q-Chem 5.1.1 for Intel X86 EM64T Linux

 Parts of Q-Chem use Armadillo 8.300.2 (Tropical Shenanigans).
 http://arma.sourceforge.net/

 Q-Chem begins on Tue Jul  7 07:14:59 2020  

Host: n0042.mhg0
0

     Scratch files written to /local/scratch/users/yhljason/CO_Slater_aug-pc-4.inp20200707015030//
Input Ideriv = 2
Curr. Ideriv = -1
Max.  Ideriv = 2

Checking the input file for inconsistencies... 	...done.

--------------------------------------------------------------
User input:
--------------------------------------------------------------
$molecule
0 1
C1	0.0000	0.0000	0.0000
O2	0.0000	0.0000	1.1282
$end

$rem
jobtype sp
exchange slater
xc_grid 000099000590
basis aug-pc-4
max_scf_cycles 200
thresh 14
scf_convergence 8
scf_algorithm gdm
symmetry false
sym_ignore true
unrestricted true
gen_scfman true
internal_stability_iter 15
internal_stability_davidson_iter 200
mem_total 64000
mem_static 1500
n_frozen_core 0
$end


--------------------------------------------------------------
 ----------------------------------------------------------------
             Standard Nuclear Orientation (Angstroms)
    I     Atom           X                Y                Z
 ----------------------------------------------------------------
    1      C       0.0000000000     0.0000000000     0.0000000000
    2      O       0.0000000000     0.0000000000     1.1282000000
 ----------------------------------------------------------------
 Nuclear Repulsion Energy =    22.5141873058 hartrees
 There are        7 alpha and        7 beta electrons
 Requested basis set is aug-pc-4
 There are 66 shells and 290 basis functions

 Total QAlloc Memory Limit  64000 MB
 Mega-Array Size      1467 MB
 MEM_STATIC part      1500 MB

                       Distance Matrix (Angstroms)
             C (  1)
   O (  2)  1.128200
 
 A cutoff of  1.0D-14 yielded   2211 shell pairs
 There are     42987 function pairs (     83898 Cartesian)
 
 -------------------------------------------------------
 OpenMP Integral Computing Module                       
 Release: version 1.0, May 2013, Q-Chem Inc. Pittsburgh 
 -------------------------------------------------------
 Integral Job Info:
 Integral job number is                      11
 Integral operator is                         1
 short-range coefficients                     0
 long-range coefficients              100000000
 Omega coefficients                           0
 if combine SR and LR in K                    0
 Integral screening is                        0
 Integral computing path is                   2
 max size of driver memory is           6400000
 size of driver memory is               5498286
 size of scratch memory is             29792225
 max col of scratch BK array             194481
 max len of scratch array in speh3         5572
 max len of scratch index in speh4           72
 max int batch size is                      520
 min int batch size is                       52
 fixed nKL is                                25
 max L of basis functions is                  5
 order of int derivative is                   0
 number of shells is                         66
 number of basis is                         404
 number of cartesian basis is               404
 number of contracted shell pairs          2211
 number of primitive shell pairs           5817
 maxK2 (contraction) of shell pair          121
 max number of K2 of shell pair               1
 max number of CS2 of shell pair            197
 max number of PS2 of shell pair            319
 mem total for path MDJ                  956866
 -------------------------------------------------------
 Smallest overlap matrix eigenvalue = 1.03E-06

 Scale SEOQF with 1.000000e-01/1.000000e-01/1.000000e-01

 Standard Electronic Orientation quadrupole field applied
 Nucleus-field energy     =    -0.0000000011 hartrees
 Guess from superposition of atomic densities
 Warning:  Energy on first SCF cycle will be non-variational
 SAD guess density has 14.000000 electrons

 -----------------------------------------------------------------------
  General SCF calculation program by
  Eric Jon Sundstrom, Paul Horn, Yuezhi Mao, Dmitri Zuev, Alec White,
  David Stuck, Shaama M.S., Shane Yost, Joonho Lee, David Small,
  Daniel Levine, Susi Lehtola, Hugh Burton, Evgeny Epifanovsky
 -----------------------------------------------------------------------
 Exchange:  Slater     
 Using Euler-Maclaurin-Lebedev (99,590) quadrature formula
Running Object-Oriented UKS (UHF)
performing a single roothaan step with Fock from read density so that orbitals are available to all algorithms
energy of the guess density (C=0) -111.683089482653
We will preform up to 15 macro iterations over saddle points until a stable solution is found
Energy prior to optimization (guess energy) = -111.519756526671
Begin Timing: Total SCF Calculation
Begin Timing: SCF Single Stationary Point Calculation
begin iterations for algorithm: GDM          
the SCF tolerance is set to 1.00e-08
    1    -111.5197565267      7.73e-02     00000  Normal BFGS step
    2    -111.4700048554      2.63e-01     00000 Line search: overstep
    3    -111.5286850147      2.02e-02     00000  Normal BFGS step
    4    -111.5283798059      2.40e-02     00000 Line search: overstep
    5    -111.5305459614      2.54e-03     00000  Normal BFGS step
    6    -111.5306493679      8.37e-04     00000  Normal BFGS step
    7    -111.5306619653      6.58e-05     00000  Normal BFGS step
    8    -111.5306620097      2.30e-05     00000  Normal BFGS step
    9    -111.5306620189      1.40e-06     00000  Normal BFGS step
   10    -111.5306620189      3.45e-07     00000  Normal BFGS step
   11    -111.5306620189      1.73e-08     00000  Normal BFGS step
   12    -111.5306620189      5.12e-08     00000  Normal BFGS step
   13    -111.5306620189      1.58e-09     00000 Convergence criterion met
Timing for Single Stationary Point: 108.00s (wall), 858.80s (cpu)
Begin Timing: Stability
===================================================
Beginning Test for Internal Stability
===================================================
generating davidson guess vectors based on koopmans excitations
    1      4.67e-01     00000 Davidson Iteration
    2      8.67e-02     00000 Davidson Iteration
    3      1.15e-02     00000 Davidson Iteration
    4      9.11e-03     00000 Davidson Iteration
    5      3.22e-03     00000 Davidson Iteration
    6      4.03e-04     00000 Davidson Iteration
    7      1.20e-04     00000 Davidson Iteration
    8      3.46e-05     00000 Davidson Iteration
    9      2.45e-02     00000 Davidson Iteration
   10      6.39e-03     00000 Davidson Iteration
   11      1.15e-02     00000 Davidson Iteration
   12      6.70e-03     00000 Davidson Iteration
   13      3.95e-03     00000 Davidson Iteration
   14      1.25e-03     00000 Davidson Iteration
   15      2.49e-04     00000 Davidson Iteration
   16      6.64e-05     00000 Davidson Converged
converged_eigenvalues
   0.3261
   0.4586
Threshold for negative eigenvalues: -1.0e-05
solution was a local minimum (stable)
===================================================
End Test for Internal Stability
===================================================
Our SCF solution is stable!
Timing for Total SCF: 2387.00s (wall), 19045.40s (cpu)
 Total energy in the final basis set =     -111.5306620189
<S^2> =         -0.000000000
    ==================================================
              The end of Object-Oriented SCFman       
    ==================================================
 
 --------------------------------------------------------------
 
                    Orbital Energies (a.u.)
 --------------------------------------------------------------
 
 Alpha MOs
 -- Occupied --
-18.650  -9.835  -1.024  -0.472  -0.397  -0.397  -0.288
 -- Virtual --
 -0.038  -0.038   0.014   0.026   0.027   0.027   0.060   0.063
  0.063   0.093   0.101   0.101   0.102   0.102   0.103   0.146
  0.157   0.157   0.202   0.217   0.217   0.221   0.221   0.224
  0.224   0.248   0.248   0.257   0.269   0.269   0.278   0.278
  0.280   0.294   0.330   0.331   0.331   0.368   0.368   0.372
  0.372   0.372   0.372   0.456   0.474   0.479   0.479   0.485
  0.485   0.528   0.528   0.539   0.539   0.551   0.551   0.575
  0.581   0.581   0.582   0.582   0.586   0.586   0.592   0.592
  0.603   0.610   0.610   0.631   0.631   0.653   0.678   0.695
  0.695   0.698   0.698   0.733   0.777   0.777   0.816   0.821
  0.821   0.824   0.824   0.828   0.828   0.956   0.969   0.969
  0.978   0.978   0.985   0.985   1.024   1.024   1.030   1.030
  1.096   1.096   1.107   1.120   1.120   1.155   1.155   1.165
  1.286   1.326   1.326   1.382   1.617   1.622   1.622   1.639
  1.639   1.710   1.710   1.757   1.851   1.851   1.921   1.921
  2.057   2.057   2.111   2.111   2.135   2.247   2.247   2.261
  2.365   2.365   2.422   2.468   2.468   2.666   2.666   2.668
  3.096   3.096   3.205   3.340   3.886   3.886   3.954   3.954
  4.062   4.062   4.087   4.087   4.106   4.210   4.210   4.268
  4.268   4.310   4.341   4.341   4.681   4.681   4.751   4.751
  4.813   4.866   4.866   4.905   4.905   4.963   5.148   5.148
  5.391   5.614   5.614   5.756   5.756   5.942   5.942   5.953
  6.177   6.177   6.268   6.462   6.462   6.507   6.866   6.866
  7.594   7.594   7.975   8.252   8.252   9.110   9.286   9.286
  9.948   9.948  10.103  10.103  10.293  10.293  10.311  10.311
 10.397  10.604  10.604  10.657  10.657  10.764  10.764  10.820
 11.057  11.057  11.204  11.412  11.412  11.533  11.533  11.643
 11.643  11.733  11.744  11.744  11.887  11.887  12.010  12.010
 12.321  12.321  12.461  12.461  12.470  12.573  12.573  12.715
 12.715  12.890  12.890  13.016  13.306  13.306  13.643  13.643
 14.470  14.470  14.491  15.555  15.975  15.975  16.167  16.968
 16.968  17.272  17.272  17.416  17.416  17.894  18.039  18.039
 18.614  18.614  19.109  19.109  19.534  22.113  22.874  22.874
 24.048  24.048  26.627  30.550  31.872  31.872  31.922  31.922
 32.807  32.807  33.670  34.966  66.512  66.512  67.184  67.184
 69.027  74.214 143.946
 
 Beta MOs
 -- Occupied --
-18.650  -9.835  -1.024  -0.472  -0.397  -0.397  -0.288
 -- Virtual --
 -0.038  -0.038   0.014   0.026   0.027   0.027   0.060   0.063
  0.063   0.093   0.101   0.101   0.102   0.102   0.103   0.146
  0.157   0.157   0.202   0.217   0.217   0.221   0.221   0.224
  0.224   0.248   0.248   0.257   0.269   0.269   0.278   0.278
  0.280   0.294   0.330   0.331   0.331   0.368   0.368   0.372
  0.372   0.372   0.372   0.456   0.474   0.479   0.479   0.485
  0.485   0.528   0.528   0.539   0.539   0.551   0.551   0.575
  0.581   0.581   0.582   0.582   0.586   0.586   0.592   0.592
  0.603   0.610   0.610   0.631   0.631   0.653   0.678   0.695
  0.695   0.698   0.698   0.733   0.777   0.777   0.816   0.821
  0.821   0.824   0.824   0.828   0.828   0.956   0.969   0.969
  0.978   0.978   0.985   0.985   1.024   1.024   1.030   1.030
  1.096   1.096   1.107   1.120   1.120   1.155   1.155   1.165
  1.286   1.326   1.326   1.382   1.617   1.622   1.622   1.639
  1.639   1.710   1.710   1.757   1.851   1.851   1.921   1.921
  2.057   2.057   2.111   2.111   2.135   2.247   2.247   2.261
  2.365   2.365   2.422   2.468   2.468   2.666   2.666   2.668
  3.096   3.096   3.205   3.340   3.886   3.886   3.954   3.954
  4.062   4.062   4.087   4.087   4.106   4.210   4.210   4.268
  4.268   4.310   4.341   4.341   4.681   4.681   4.751   4.751
  4.813   4.866   4.866   4.905   4.905   4.963   5.148   5.148
  5.391   5.614   5.614   5.756   5.756   5.942   5.942   5.953
  6.177   6.177   6.268   6.462   6.462   6.507   6.866   6.866
  7.594   7.594   7.975   8.252   8.252   9.110   9.286   9.286
  9.948   9.948  10.103  10.103  10.293  10.293  10.311  10.311
 10.397  10.604  10.604  10.657  10.657  10.764  10.764  10.820
 11.057  11.057  11.204  11.412  11.412  11.533  11.533  11.643
 11.643  11.733  11.744  11.744  11.887  11.887  12.010  12.010
 12.321  12.321  12.461  12.461  12.470  12.573  12.573  12.715
 12.715  12.890  12.890  13.016  13.306  13.306  13.643  13.643
 14.470  14.470  14.491  15.555  15.975  15.975  16.167  16.968
 16.968  17.272  17.272  17.416  17.416  17.894  18.039  18.039
 18.614  18.614  19.109  19.109  19.534  22.113  22.874  22.874
 24.048  24.048  26.627  30.550  31.872  31.872  31.922  31.922
 32.807  32.807  33.670  34.966  66.512  66.512  67.184  67.184
 69.027  74.214 143.946
 --------------------------------------------------------------
 
          Ground-State Mulliken Net Atomic Charges

     Atom                 Charge (a.u.)    Spin (a.u.)
  --------------------------------------------------------
      1 C                     0.165590       0.000000
      2 O                    -0.165590      -0.000000
  --------------------------------------------------------
  Sum of atomic charges =    -0.000000
  Sum of spin   charges =    -0.000000

 -----------------------------------------------------------------
                    Cartesian Multipole Moments
 -----------------------------------------------------------------
    Charge (ESU x 10^10)
                -0.0000
    Dipole Moment (Debye)
         X       0.0000      Y      -0.0000      Z       0.2819
       Tot       0.2819
    Quadrupole Moments (Debye-Ang)
        XX     -10.6552     XY       0.0000     YY     -10.6552
        XZ       0.0000     YZ      -0.0000     ZZ     -12.3091
    Octopole Moments (Debye-Ang^2)
       XXX       0.0000    XXY       0.0000    XYY      -0.0000
       YYY       0.0000    XXZ      -5.3954    XYZ       0.0000
       YYZ      -5.3954    XZZ      -0.0000    YZZ       0.0000
       ZZZ     -17.4075
    Hexadecapole Moments (Debye-Ang^3)
      XXXX     -10.6956   XXXY      -0.0000   XXYY      -3.5652
      XYYY       0.0000   YYYY     -10.6956   XXXZ       0.0000
      XXYZ      -0.0000   XYYZ       0.0000   YYYZ      -0.0000
      XXZZ     -10.3942   XYZZ      -0.0000   YYZZ     -10.3942
      XZZZ       0.0000   YZZZ       0.0000   ZZZZ     -53.4963
 -----------------------------------------------------------------
Archival summary:
1\1\n0042.mhg0\SP\ProcedureUnspecified\BasisUnspecified\11\yhljason\TueJul707:55:032020TueJul707:55:032020\0\\#,ProcedureUnspecified,BasisUnspecified,\\0,1\C\O,1,1.1282\\\@

 Total job time:  2404.42s(wall), 19148.96s(cpu) 
 Tue Jul  7 07:55:03 2020

        *************************************************************
        *                                                           *
        *  Thank you very much for using Q-Chem.  Have a nice day.  *
        *                                                           *
        *************************************************************


