Q-Chem Developer Version!
                  Welcome to Q-Chem
     A Quantum Leap Into The Future Of Chemistry


 Q-Chem 5.1, Q-Chem, Inc., Pleasanton, CA (2018)

 Yihan Shao,  Zhengting Gan,  E. Epifanovsky,  A. T. B. Gilbert,  M. Wormit,  
 J. Kussmann,  A. W. Lange,  A. Behn,  Jia Deng,  Xintian Feng,  D. Ghosh,  
 M. Goldey,  P. R. Horn,  L. D. Jacobson,  I. Kaliman,  T. Kus,  A. Landau,  
 Jie Liu,  E. I. Proynov,  R. M. Richard,  R. P. Steele,  E. J. Sundstrom,  
 H. L. Woodcock III,  P. M. Zimmerman,  D. Zuev,  B. Albrecht,  E. Alguire,  
 S. A. Baeppler,  D. Barton,  Z. Benda,  Y. A. Bernard,  E. J. Berquist,  
 K. B. Bravaya,  H. Burton,  D. Casanova,  Chun-Min Chang,  Yunqing Chen,  
 A. Chien,  K. D. Closser,  M. P. Coons,  S. Coriani,  S. Dasgupta,  
 A. L. Dempwolff,  M. Diedenhofen,  Hainam Do,  R. G. Edgar,  Po-Tung Fang,  
 S. Faraji,  S. Fatehi,  Qingguo Feng,  K. D. Fenk,  J. Fosso-Tande,  
 Qinghui Ge,  A. Ghysels,  G. Gidofalvi,  J. Gomes,  J. Gonthier,  A. Gunina,  
 D. Hait,  M. W. D. Hanson-Heine,  P. H. P. Harbach,  A. W. Hauser,  
 J. E. Herr,  E. G. Hohenstein,  Z. C. Holden,  Kerwin Hui,  B. C. Huynh,  
 T.-C. Jagau,  Hyunjun Ji,  B. Kaduk,  K. Khistyaev,  Jaehoon Kim,  
 P. Klunzinger,  K. Koh,  D. Kosenkov,  L. Koulias,  T. Kowalczyk,  
 C. M. Krauter,  A. Kunitsa,  Ka Un Lao,  A. Laurent,  K. V. Lawler,  
 Joonho Lee,  D. Lefrancois,  S. Lehtola,  D. S. Levine,  Yi-Pei Li,  
 You-Sheng Lin,  Fenglai Liu,  E. Livshits,  A. Luenser,  P. Manohar,  
 E. Mansoor,  S. F. Manzer,  Shan-Ping Mao,  Yuezhi Mao,  N. Mardirossian,  
 A. V. Marenich,  T. Markovich,  L. A. Martinez-Martinez,  S. A. Maurer,  
 N. J. Mayhall,  S. C. McKenzie,  J.-M. Mewes,  A. F. Morrison,  
 J. W. Mullinax,  K. Nanda,  T. S. Nguyen-Beck,  R. Olivares-Amaya,  
 J. A. Parkhill,  T. M. Perrine,  F. Plasser,  P. Pokhilko,  S. Prager,  
 A. Prociuk,  E. Ramos,  D. R. Rehn,  F. Rob,  M. Schneider,  N. Sergueev,  
 S. M. Sharada,  S. Sharma,  D. W. Small,  T. Stauch,  T. Stein,  
 Yu-Chuan Su,  A. J. W. Thom,  A. Tkatchenko,  T. Tsuchimochi,  N. M. Tubman,  
 L. Vogt,  M. L. Vidal,  O. Vydrov,  M. A. Watson,  J. Wenzel,  
 M. de Wergifosse,  T. A. Wesolowski,  A. White,  J. Witte,  A. Yamada,  
 Jun Yang,  K. Yao,  S. Yeganeh,  S. R. Yost,  Zhi-Qiang You,  A. Zech,  
 Igor Ying Zhang,  Xing Zhang,  Yan Zhao,  Ying Zhu,  B. R. Brooks,  
 G. K. L. Chan,  C. J. Cramer,  M. S. Gordon,  W. J. Hehre,  A. Klamt,  
 M. W. Schmidt,  C. D. Sherrill,  D. G. Truhlar,  A. Aspuru-Guzik,  R. Baer,  
 A. T. Bell,  N. A. Besley,  Jeng-Da Chai,  A. E. DePrince, III,  
 R. A. DiStasio Jr.,  A. Dreuw,  B. D. Dunietz,  T. R. Furlani,  
 Chao-Ping Hsu,  Yousung Jung,  Jing Kong,  D. S. Lambrecht,  WanZhen Liang,  
 C. Ochsenfeld,  V. A. Rassolov,  L. V. Slipchenko,  J. E. Subotnik,  
 T. Van Voorhis,  J. M. Herbert,  A. I. Krylov,  P. M. W. Gill,  M. Head-Gordon

 Contributors to earlier versions of Q-Chem not listed above: 
 R. D. Adamson,  B. Austin,  J. Baker,  G. J. O. Beran,  K. Brandhorst,  
 S. T. Brown,  E. F. C. Byrd,  A. K. Chakraborty,  C.-L. Cheng,  
 Siu Hung Chien,  D. M. Chipman,  D. L. Crittenden,  H. Dachsel,  
 R. J. Doerksen,  A. D. Dutoi,  L. Fusti-Molnar,  W. A. Goddard III,  
 A. Golubeva-Zadorozhnaya,  S. R. Gwaltney,  G. Hawkins,  A. Heyden,  
 S. Hirata,  G. Kedziora,  F. J. Keil,  C. Kelley,  Jihan Kim,  R. A. King,  
 R. Z. Khaliullin,  P. P. Korambath,  W. Kurlancheek,  A. M. Lee,  M. S. Lee,  
 S. V. Levchenko,  Ching Yeh Lin,  D. Liotard,  R. C. Lochan,  I. Lotan,  
 P. E. Maslen,  N. Nair,  D. P. O'Neill,  D. Neuhauser,  E. Neuscamman,  
 C. M. Oana,  R. Olson,  B. Peters,  R. Peverati,  P. A. Pieniazek,  
 Y. M. Rhee,  J. Ritchie,  M. A. Rohrdanz,  E. Rosta,  N. J. Russ,  
 H. F. Schaefer III,  N. E. Schultz,  N. Shenvi,  A. C. Simmonett,  A. Sodt,  
 D. Stuck,  K. S. Thanthiriwatte,  V. Vanovschi,  Tao Wang,  A. Warshel,  
 C. F. Williams,  Q. Wu,  X. Xu,  W. Zhang

 Please cite Q-Chem as follows:
 Y. Shao et al., Mol. Phys. 113, 184-215 (2015)
 DOI: 10.1080/00268976.2014.952696

 Q-Chem 5.1.1 for Intel X86 EM64T Linux

 Parts of Q-Chem use Armadillo 8.300.2 (Tropical Shenanigans).
 http://arma.sourceforge.net/

 Q-Chem begins on Sat Nov 14 21:16:07 2020  

Host: n0098.mhg0
0

     Scratch files written to /local/scratch/users/yhljason/NF2_DSD-PBEPBE-D3_aug-cc-pcV5Z.inp20201114211605//
Input Ideriv = 0
Curr. Ideriv = -1
Max.  Ideriv = 0
Input Ideriv = 0
Curr. Ideriv = 0
Max.  Ideriv = 0

Checking the input file for inconsistencies... 	...done.

--------------------------------------------------------------
User input:
--------------------------------------------------------------
$molecule
0 2
N1      0.0000  0.0000  0.6059
F2      0.0000  1.0810  -0.2356
F3      0.0000  -1.0810 -0.2356
$end

$rem
jobtype sp
exchange DSD-PBEPBE-D3
xc_grid 000099000590
basis aug-cc-pcV5Z

max_scf_cycles 200
thresh 14
scf_convergence 8
scf_algorithm gdm
symmetry false
sym_ignore true
unrestricted false
gen_scfman true
internal_stability_iter 15
internal_stability_davidson_iter 200
mem_total 128000
cc_memory 96000
cc_backend xm
mem_static 1500
n_frozen_core 500
$end



--------------------------------------------------------------
 Adding empirical dispersion correction 
 ----------------------------------------------------------------
 Doing -D3(BJ) with
 s6 =   0.78000
 s8 =   0.00000
 a1 =   0.00000
 a2 =   6.10000
 -D3 energy without 3body term =     -0.0004421261 hartrees
 ----------------------------------------------------------------
             Standard Nuclear Orientation (Angstroms)
    I     Atom           X                Y                Z
 ----------------------------------------------------------------
    1      N       0.0000000000     0.0000000000     0.6059000000
    2      F       0.0000000000     1.0810000000    -0.2356000000
    3      F       0.0000000000    -1.0810000000    -0.2356000000
 ----------------------------------------------------------------
 Nuclear Repulsion Energy =    68.4970094872 hartrees
 There are       13 alpha and       12 beta electrons
 Requested basis set is aug-cc-pCV5Z
 There are 123 shells and 543 basis functions

 Total QAlloc Memory Limit 128000 MB
 Mega-Array Size      1467 MB
 MEM_STATIC part      1500 MB

                       Distance Matrix (Angstroms)
             N (  1)   F (  2)
   F (  2)  1.369921
   F (  3)  1.369921  2.162000
 
 A cutoff of  1.0D-14 yielded   6657 shell pairs
 There are    134705 function pairs (    263017 Cartesian)
 
 -------------------------------------------------------
 OpenMP Integral Computing Module                       
 Release: version 1.0, May 2013, Q-Chem Inc. Pittsburgh 
 -------------------------------------------------------
 Integral Job Info:
 Integral job number is                      11
 Integral operator is                         1
 short-range coefficients                     0
 long-range coefficients              100000000
 Omega coefficients                           0
 if combine SR and LR in K                    0
 Integral screening is                        0
 Integral computing path is                   2
 max size of driver memory is           6400000
 size of driver memory is               5498286
 size of scratch memory is             29551430
 max col of scratch BK array             194481
 max len of scratch array in speh3         5572
 max len of scratch index in speh4           72
 max int batch size is                      520
 min int batch size is                       52
 fixed nKL is                                30
 max L of basis functions is                  5
 order of int derivative is                   0
 number of shells is                        123
 number of basis is                         753
 number of cartesian basis is               753
 number of contracted shell pairs          6657
 number of primitive shell pairs          12993
 maxK2 (contraction) of shell pair          100
 max number of K2 of shell pair               1
 max number of CS2 of shell pair            653
 max number of PS2 of shell pair           1100
 mem total for path MDJ                 1380432
 -------------------------------------------------------
 Smallest overlap matrix eigenvalue = 1.76E-05

 Scale SEOQF with 1.000000e-01/1.000000e-01/1.000000e-01

 Standard Electronic Orientation quadrupole field applied
 Nucleus-field energy     =     0.0000000011 hartrees
 Guess from superposition of atomic densities
 Warning:  Energy on first SCF cycle will be non-variational
 SAD guess density has 25.000000 electrons

 -----------------------------------------------------------------------
  General SCF calculation program by
  Eric Jon Sundstrom, Paul Horn, Yuezhi Mao, Dmitri Zuev, Alec White,
  David Stuck, Shaama M.S., Shane Yost, Joonho Lee, David Small,
  Daniel Levine, Susi Lehtola, Hugh Burton, Evgeny Epifanovsky
 -----------------------------------------------------------------------
 Exchange:     0.6800 Hartree-Fock + 0.3200 PBE
 Correlation:  0.4900 PBE
 Using Euler-Maclaurin-Lebedev (99,590) quadrature formula
 Dispersion:   Grimme D3
Running Object-Oriented ROKS (ROHF)
ROHF occupied orbitals are orthonormal
ROHF occupied orbitals are orthogonal to virtual orbitals
ROHF virtual orbitals are orthonormal
 LTot/LBra/LKet=          16           6          10

 Q-Chem warning:

 in GenH1, ket side, handled with new code

We will preform up to 15 macro iterations over saddle points until a stable solution is found
Energy prior to optimization (guess energy) = -250.646806095444
Begin Timing: Total SCF Calculation
Begin Timing: SCF Single Stationary Point Calculation
begin iterations for algorithm: GDM          
the SCF tolerance is set to 1.00e-08
 LTot/LBra/LBra=          20          10          10

 Q-Chem warning:

 in GenH1, bra side, handled with new code

    1    -250.6468060954      8.09e-01     00000  Descent step
    2    -251.1172882250      2.37e+00     00000  Descent step
    3    -251.9487749082      3.92e-01     00000  Descent step
    4    -252.1734164091      4.03e-01     00000  Descent step
    5    -252.4687868601      9.99e-01     00000  Descent step
Fro norm of D 1.139193938939e+00
transformation scaled by 2
    6    -252.8756437906      9.67e-01     00000  Descent step
    7    -253.0806850927      5.71e-01     00000  Descent step
    8    -253.3156505382      2.57e-01     00000  Descent step
    9    -253.4551638937      1.18e-01     00000  Dog-leg BFGS step
   10    -253.5134255625      4.62e-02     00000  Normal BFGS step
   11    -253.5120288765      1.33e-01     00000 Line search: overstep
   12    -253.5183224297      4.70e-02     00000  Normal BFGS step
   13    -253.5007931476      1.11e-01     00000 Line search: overstep
   14    -253.5196303261      5.35e-02     00000  Dog-leg BFGS step
   15    -253.4889074292      2.23e-01     00000 Line search: overstep
   16    -253.5212386340      2.84e-02     00000  Normal BFGS step
   17    -253.5192750959      8.08e-02     00000 Line search: overstep
   18    -253.5219800794      1.14e-02     00000  Normal BFGS step
   19    -253.5227063273      1.05e-02     00000  Normal BFGS step
   20    -253.5229023141      4.30e-03     00000  Normal BFGS step
   21    -253.5229549091      1.12e-03     00000  Normal BFGS step
   22    -253.5229633520      3.86e-04     00000  Normal BFGS step
   23    -253.5229643954      1.10e-04     00000  Normal BFGS step
   24    -253.5229644990      4.39e-05     00000  Normal BFGS step
   25    -253.5229645064      1.21e-05     00000  Normal BFGS step
   26    -253.5229645072      3.22e-06     00000  Normal BFGS step
   27    -253.5229645073      4.36e-07     00000  Normal BFGS step
   28    -253.5229645073      8.63e-08     00000  Normal BFGS step
   29    -253.5229645073      7.47e-08     00000  Normal BFGS step
   30    -253.5229645073      2.10e-07     00000  Normal BFGS step
   31    -253.5229645073      1.81e-08     00000  Normal BFGS step
   32    -253.5229645073      1.04e-08     00000  Normal BFGS step
   33    -253.5229645073      6.86e-10     00000 Convergence criterion met
The disked orbital energies are calculated using alpha and beta Focks
Timing for Single Stationary Point: 28643.00s (wall), 228461.47s (cpu)
Begin Timing: Stability
===================================================
Beginning Test for Internal Stability
===================================================
generating davidson guess vectors based on koopmans-like excitations
    1      6.38e-01     00000 Davidson Iteration
    2      1.37e-01     00000 Davidson Iteration
    3      3.14e-02     00000 Davidson Iteration
    4      9.24e-03     00000 Davidson Iteration
    5      4.05e-03     00000 Davidson Iteration
    6      1.28e-03     00000 Davidson Iteration
    7      2.45e-04     00000 Davidson Iteration
    8      6.47e-05     00000 Davidson Iteration
    9      3.97e-04     00000 Davidson Iteration
   10      1.73e-04     00000 Davidson Iteration
   11      2.14e-04     00000 Davidson Iteration
   12      7.91e-05     00000 Davidson Converged
converged_eigenvalues
  -0.3438
   0.2672
Threshold for negative eigenvalues: -1.0e-05
solution was a saddle point (unstable)
displacing from saddle point as requested
performing a line search along the lowest hessian eigenvector after a small displacement (1E-3) to give a non-zero gradient along this direction 
Fro norm of D 1.386362146050e+00
transformation scaled by 2
Fro norm of D 1.788854382000e+00
transformation scaled by 2
===================================================
End Test for Internal Stability
===================================================
Timing for Internal Stability: 21174.00s (wall), 168844.11s (cpu)
The disked orbital energies are calculated using alpha and beta Focks
completed scf stability macro iteration 1
beginning next scf after displacing from saddle point
Begin Timing: SCF Single Stationary Point Calculation
begin iterations for algorithm: GDM          
the SCF tolerance is set to 1.00e-08
    1    -253.6497629191      1.58e-01     00000  Normal BFGS step
    2    -253.6816402048      2.20e-01     00000  Normal BFGS step
    3    -253.6852207972      1.93e-01     00000  Normal BFGS step
    4    -253.6955547235      2.03e-02     00000  Normal BFGS step
    5    -253.6959885406      8.93e-03     00000  Normal BFGS step
    6    -253.6960371742      9.11e-03     00000  Normal BFGS step
    7    -253.6960417432      5.61e-03     00000  Normal BFGS step
    8    -253.6960598990      1.20e-03     00000  Normal BFGS step
    9    -253.6960603399      7.38e-04     00000  Normal BFGS step
   10    -253.6960605881      8.10e-05     00000  Normal BFGS step
   11    -253.6960605945      2.85e-05     00000  Normal BFGS step
   12    -253.6960605958      3.92e-05     00000  Normal BFGS step
   13    -253.6960605954      5.81e-05     00000  Normal BFGS step
   14    -253.6960605964      3.00e-06     00000  Normal BFGS step
   15    -253.6960605964      1.28e-06     00000  Normal BFGS step
   16    -253.6960605964      4.86e-07     00000  Normal BFGS step
   17    -253.6960605964      1.07e-06     00000  Normal BFGS step
   18    -253.6960605964      1.90e-07     00000  Normal BFGS step
   19    -253.6960605964      5.15e-08     00000  Normal BFGS step
   20    -253.6960605964      8.02e-09     00000 Convergence criterion met
The disked orbital energies are calculated using alpha and beta Focks
Timing for Single Stationary Point: 17291.00s (wall), 138043.47s (cpu)
Begin Timing: Stability
===================================================
Beginning Test for Internal Stability
===================================================
generating davidson guess vectors based on koopmans-like excitations
    1      4.32e-01     00000 Davidson Iteration
    2      1.09e-01     00000 Davidson Iteration
    3      1.17e-01     00000 Davidson Iteration
    4      9.59e-02     00000 Davidson Iteration
    5      7.16e-02     00000 Davidson Iteration
    6      4.40e-02     00000 Davidson Iteration
    7      1.10e-02     00000 Davidson Iteration
    8      3.03e-03     00000 Davidson Iteration
    9      5.20e-04     00000 Davidson Iteration
   10      1.65e-04     00000 Davidson Iteration
   11      6.80e-05     00000 Davidson Iteration
   12      7.89e-04     00000 Davidson Iteration
   13      2.69e-04     00000 Davidson Iteration
   14      6.17e-05     00000 Davidson Converged
converged_eigenvalues
   0.3149
   0.4956
Threshold for negative eigenvalues: -1.0e-05
solution was a local minimum (stable)
===================================================
End Test for Internal Stability
===================================================
Our SCF solution is stable!
The disked orbital energies are calculated using alpha and beta Focks
Timing for Total SCF: 84803.00s (wall), 676362.54s (cpu)
 Total energy in the final basis set =     -253.6960605964
<S^2> =          0.750000000
    ==================================================
              The end of Object-Oriented SCFman       
    ==================================================

 Q-Chem fatal error occurred in module libmdc/qalloc.C, line 49:

 Illegal memory length in mega_alloc


 Please submit a crash report at q-chem.com/reporter 
 
 
 
User input: 2 of 2 
 
Q-Chem Developer Version!
                  Welcome to Q-Chem
     A Quantum Leap Into The Future Of Chemistry


 Q-Chem 5.1, Q-Chem, Inc., Pleasanton, CA (2018)

 Yihan Shao,  Zhengting Gan,  E. Epifanovsky,  A. T. B. Gilbert,  M. Wormit,  
 J. Kussmann,  A. W. Lange,  A. Behn,  Jia Deng,  Xintian Feng,  D. Ghosh,  
 M. Goldey,  P. R. Horn,  L. D. Jacobson,  I. Kaliman,  T. Kus,  A. Landau,  
 Jie Liu,  E. I. Proynov,  R. M. Richard,  R. P. Steele,  E. J. Sundstrom,  
 H. L. Woodcock III,  P. M. Zimmerman,  D. Zuev,  B. Albrecht,  E. Alguire,  
 S. A. Baeppler,  D. Barton,  Z. Benda,  Y. A. Bernard,  E. J. Berquist,  
 K. B. Bravaya,  H. Burton,  D. Casanova,  Chun-Min Chang,  Yunqing Chen,  
 A. Chien,  K. D. Closser,  M. P. Coons,  S. Coriani,  S. Dasgupta,  
 A. L. Dempwolff,  M. Diedenhofen,  Hainam Do,  R. G. Edgar,  Po-Tung Fang,  
 S. Faraji,  S. Fatehi,  Qingguo Feng,  K. D. Fenk,  J. Fosso-Tande,  
 Qinghui Ge,  A. Ghysels,  G. Gidofalvi,  J. Gomes,  J. Gonthier,  A. Gunina,  
 D. Hait,  M. W. D. Hanson-Heine,  P. H. P. Harbach,  A. W. Hauser,  
 J. E. Herr,  E. G. Hohenstein,  Z. C. Holden,  Kerwin Hui,  B. C. Huynh,  
 T.-C. Jagau,  Hyunjun Ji,  B. Kaduk,  K. Khistyaev,  Jaehoon Kim,  
 P. Klunzinger,  K. Koh,  D. Kosenkov,  L. Koulias,  T. Kowalczyk,  
 C. M. Krauter,  A. Kunitsa,  Ka Un Lao,  A. Laurent,  K. V. Lawler,  
 Joonho Lee,  D. Lefrancois,  S. Lehtola,  D. S. Levine,  Yi-Pei Li,  
 You-Sheng Lin,  Fenglai Liu,  E. Livshits,  A. Luenser,  P. Manohar,  
 E. Mansoor,  S. F. Manzer,  Shan-Ping Mao,  Yuezhi Mao,  N. Mardirossian,  
 A. V. Marenich,  T. Markovich,  L. A. Martinez-Martinez,  S. A. Maurer,  
 N. J. Mayhall,  S. C. McKenzie,  J.-M. Mewes,  A. F. Morrison,  
 J. W. Mullinax,  K. Nanda,  T. S. Nguyen-Beck,  R. Olivares-Amaya,  
 J. A. Parkhill,  T. M. Perrine,  F. Plasser,  P. Pokhilko,  S. Prager,  
 A. Prociuk,  E. Ramos,  D. R. Rehn,  F. Rob,  M. Schneider,  N. Sergueev,  
 S. M. Sharada,  S. Sharma,  D. W. Small,  T. Stauch,  T. Stein,  
 Yu-Chuan Su,  A. J. W. Thom,  A. Tkatchenko,  T. Tsuchimochi,  N. M. Tubman,  
 L. Vogt,  M. L. Vidal,  O. Vydrov,  M. A. Watson,  J. Wenzel,  
 M. de Wergifosse,  T. A. Wesolowski,  A. White,  J. Witte,  A. Yamada,  
 Jun Yang,  K. Yao,  S. Yeganeh,  S. R. Yost,  Zhi-Qiang You,  A. Zech,  
 Igor Ying Zhang,  Xing Zhang,  Yan Zhao,  Ying Zhu,  B. R. Brooks,  
 G. K. L. Chan,  C. J. Cramer,  M. S. Gordon,  W. J. Hehre,  A. Klamt,  
 M. W. Schmidt,  C. D. Sherrill,  D. G. Truhlar,  A. Aspuru-Guzik,  R. Baer,  
 A. T. Bell,  N. A. Besley,  Jeng-Da Chai,  A. E. DePrince, III,  
 R. A. DiStasio Jr.,  A. Dreuw,  B. D. Dunietz,  T. R. Furlani,  
 Chao-Ping Hsu,  Yousung Jung,  Jing Kong,  D. S. Lambrecht,  WanZhen Liang,  
 C. Ochsenfeld,  V. A. Rassolov,  L. V. Slipchenko,  J. E. Subotnik,  
 T. Van Voorhis,  J. M. Herbert,  A. I. Krylov,  P. M. W. Gill,  M. Head-Gordon

 Contributors to earlier versions of Q-Chem not listed above: 
 R. D. Adamson,  B. Austin,  J. Baker,  G. J. O. Beran,  K. Brandhorst,  
 S. T. Brown,  E. F. C. Byrd,  A. K. Chakraborty,  C.-L. Cheng,  
 Siu Hung Chien,  D. M. Chipman,  D. L. Crittenden,  H. Dachsel,  
 R. J. Doerksen,  A. D. Dutoi,  L. Fusti-Molnar,  W. A. Goddard III,  
 A. Golubeva-Zadorozhnaya,  S. R. Gwaltney,  G. Hawkins,  A. Heyden,  
 S. Hirata,  G. Kedziora,  F. J. Keil,  C. Kelley,  Jihan Kim,  R. A. King,  
 R. Z. Khaliullin,  P. P. Korambath,  W. Kurlancheek,  A. M. Lee,  M. S. Lee,  
 S. V. Levchenko,  Ching Yeh Lin,  D. Liotard,  R. C. Lochan,  I. Lotan,  
 P. E. Maslen,  N. Nair,  D. P. O'Neill,  D. Neuhauser,  E. Neuscamman,  
 C. M. Oana,  R. Olson,  B. Peters,  R. Peverati,  P. A. Pieniazek,  
 Y. M. Rhee,  J. Ritchie,  M. A. Rohrdanz,  E. Rosta,  N. J. Russ,  
 H. F. Schaefer III,  N. E. Schultz,  N. Shenvi,  A. C. Simmonett,  A. Sodt,  
 D. Stuck,  K. S. Thanthiriwatte,  V. Vanovschi,  Tao Wang,  A. Warshel,  
 C. F. Williams,  Q. Wu,  X. Xu,  W. Zhang

 Please cite Q-Chem as follows:
 Y. Shao et al., Mol. Phys. 113, 184-215 (2015)
 DOI: 10.1080/00268976.2014.952696

 Q-Chem 5.1.1 for Intel X86 EM64T Linux

 Parts of Q-Chem use Armadillo 8.300.2 (Tropical Shenanigans).
 http://arma.sourceforge.net/

 Q-Chem begins on Sun Nov 15 20:54:36 2020  

Host: n0098.mhg0
0

     Scratch files written to /local/scratch/users/yhljason/NF2_DSD-PBEPBE-D3_aug-cc-pcV5Z.inp20201114211605//
The previous job contains 0 fragments, simply inherited here
Input Ideriv = 1
Curr. Ideriv = -1
Max.  Ideriv = 1

Checking the input file for inconsistencies... 	...done.

--------------------------------------------------------------
User input:
--------------------------------------------------------------
$molecule
read
$end

$rem

jobtype sp
method HF
xc_grid 000099000590
basis aug-cc-pcV5Z
max_scf_cycles 0
scf_guess read
thresh 14
scf_convergence 8
mem_total 128000
cc_memory 96000
cc_backend xm
mem_static 1500
symmetry false
sym_ignore true
scf_guess read
unrestricted false
scf_algorithm gdm
n_frozen_core 0
$end


--------------------------------------------------------------
 ----------------------------------------------------------------
             Standard Nuclear Orientation (Angstroms)
    I     Atom           X                Y                Z
 ----------------------------------------------------------------
    1      N       0.0000000000     0.0000000000     0.6059000000
    2      F       0.0000000000     1.0810000000    -0.2356000000
    3      F       0.0000000000    -1.0810000000    -0.2356000000
 ----------------------------------------------------------------
 Nuclear Repulsion Energy =    68.4974516132 hartrees
 There are       13 alpha and       12 beta electrons
 Requested basis set is aug-cc-pCV5Z
 There are 123 shells and 543 basis functions

 Total QAlloc Memory Limit 128000 MB
 Mega-Array Size      1467 MB
 MEM_STATIC part      1500 MB

                       Distance Matrix (Angstroms)
             N (  1)   F (  2)
   F (  2)  1.369921
   F (  3)  1.369921  2.162000
 
 A cutoff of  1.0D-14 yielded   6657 shell pairs
 There are    134705 function pairs (    263017 Cartesian)
 
 -------------------------------------------------------
 OpenMP Integral Computing Module                       
 Release: version 1.0, May 2013, Q-Chem Inc. Pittsburgh 
 -------------------------------------------------------
 Integral Job Info:
 Integral job number is                      11
 Integral operator is                         1
 short-range coefficients                     0
 long-range coefficients              100000000
 Omega coefficients                           0
 if combine SR and LR in K                    0
 Integral screening is                        0
 Integral computing path is                   2
 max size of driver memory is           6400000
 size of driver memory is               5498286
 size of scratch memory is             29551430
 max col of scratch BK array             194481
 max len of scratch array in speh3         5572
 max len of scratch index in speh4           72
 max int batch size is                      520
 min int batch size is                       52
 fixed nKL is                                30
 max L of basis functions is                  5
 order of int derivative is                   0
 number of shells is                        123
 number of basis is                         753
 number of cartesian basis is               753
 number of contracted shell pairs          6657
 number of primitive shell pairs          12993
 maxK2 (contraction) of shell pair          100
 max number of K2 of shell pair               1
 max number of CS2 of shell pair            653
 max number of PS2 of shell pair           1100
 mem total for path MDJ                 1380432
 -------------------------------------------------------
 Smallest overlap matrix eigenvalue = 1.76E-05

 Scale SEOQF with 1.000000e-01/1.000000e-01/1.000000e-01

 Standard Electronic Orientation quadrupole field applied
 Nucleus-field energy     =     0.0000000011 hartrees
 Guess MOs from SCF MO coefficient file
 Reading MOs from coefficient file
 Reading MOs from coefficient file
 The restricted Hartree-Fock energy will be evaluated
 The orbitals will not be altered
Using Q-Chem read-in guess as SCF_GUESS READ specified.

 using 8 threads for integral computing
 -------------------------------------------------------
 OpenMP Integral computing Module                
 Release: version 2.0, May 2017, Q-Chem Inc. Pleasanton 
 -------------------------------------------------------
 LTot/LBra/LKet=          20          10          10
 LTot/LBra/LKet=          20          10          10

 Q-Chem warning:

 in GenH1, ket side, handled with new code


 Q-Chem warning:

 in GenH1, ket side, handled with new code

 LTot/LBra/LKet=          20          10          10

 Q-Chem warning:

 in GenH1, ket side, handled with new code

 LTot/LBra/LBra=          20          10          10

 Q-Chem warning:

 in GenH1, bra side, handled with new code

TIMEINFO->: J/JK contribution 6968.69 sec.
Avoiding writing the new MOs to disk !!! 
 ---------------------------------------
  Cycle       Energy        RMS Gradient
 ---------------------------------------
    1    -253.2711264180      4.34E-02 Convergence criterion met
 ---------------------------------------
 SCF time:  CPU 6971.75 s  wall 874.00 s
 SCF   energy in the final basis set = -253.27112642
 Total energy in the final basis set = -253.27112642
 
 --------------------------------------------------------------
 
                    Orbital Energies (a.u.)
 --------------------------------------------------------------
 
 Alpha MOs
 -- Occupied --
-25.727 -25.727 -15.317  -1.584  -1.493  -1.008  -0.735  -0.705
 -0.708  -0.630  -0.590  -0.543  -0.478
 -- Virtual --
  0.048   0.057   0.063   0.070   0.129   0.131   0.145   0.147
  0.154   0.155   0.166   0.203   0.242   0.273   0.303   0.306
  0.312   0.327   0.334   0.340   0.378   0.471   0.506   0.525
  0.543   0.568   0.590   0.602   0.616   0.618   0.658   0.667
  0.668   0.686   0.687   0.716   0.742   0.795   0.824   0.829
  0.834   0.864   0.896   0.897   0.904   1.001   1.002   1.015
  1.164   1.178   1.205   1.266   1.312   1.344   1.387   1.430
  1.446   1.497   1.521   1.547   1.564   1.587   1.601   1.621
  1.625   1.639   1.640   1.645   1.647   1.658   1.727   1.736
  1.772   1.825   1.868   1.885   1.887   1.910   1.994   2.084
  2.084   2.109   2.116   2.248   2.258   2.279   2.282   2.315
  2.333   2.363   2.396   2.462   2.513   2.551   2.563   2.580
  2.686   2.711   2.735   2.820   3.111   3.120   3.147   3.176
  3.205   3.280   3.338   3.345   3.368   3.415   3.419   3.434
  3.487   3.591   3.668   3.676   3.756   3.760   3.796   3.809
  3.817   3.837   3.841   3.878   3.898   3.904   3.906   3.938
  3.950   3.969   3.989   4.000   4.007   4.075   4.143   4.184
  4.188   4.330   4.339   4.444   4.477   4.496   4.574   4.667
  4.673   4.688   4.697   4.775   4.777   4.941   4.953   4.974
  5.206   5.235   5.245   5.294   5.333   5.358   5.461   5.541
  5.561   5.574   5.575   5.633   5.657   5.693   5.784   5.789
  5.843   5.921   6.068   6.140   6.217   6.313   6.342   6.400
  6.412   6.482   6.592   6.626   6.656   6.709   6.711   6.745
  7.004   7.013   7.340   7.470   7.568   7.797   7.802   7.823
  7.853   7.853   8.029   8.045   8.048   8.049   8.074   8.350
  8.454   8.535   8.671   8.700   8.782   8.795   8.842   8.886
  8.900   8.901   9.004   9.027   9.092   9.093   9.123   9.165
  9.180   9.185   9.226   9.243   9.263   9.337   9.341   9.357
  9.396   9.460   9.469   9.471   9.475   9.531   9.585   9.667
  9.732   9.739   9.832   9.881   9.890   9.948  10.316  10.437
 10.529  10.595  10.676  10.743  10.783  10.838  10.879  10.977
 11.084  11.197  11.250  11.375  11.382  11.558  11.646  11.852
 11.888  11.948  12.129  12.311  12.419  12.433  12.546  12.668
 12.842  12.852  12.995  13.080  13.233  13.304  13.559  13.675
 13.975  14.162  14.527  14.561  14.683  14.733  14.873  15.018
 15.084  15.102  15.416  15.796  15.855  15.925  15.928  16.088
 16.151  16.617  16.655  16.661  16.753  17.002  17.696  17.901
 18.354  18.601  18.849  19.320  19.690  20.627  20.632  20.654
 20.655  20.718  20.719  20.759  20.775  20.943  21.026  21.109
 21.190  21.384  21.393  21.396  21.427  21.428  21.433  21.448
 21.538  21.571  21.579  24.098  24.185  24.200  24.222  24.227
 24.268  24.337  24.350  24.424  24.476  24.540  24.572  24.610
 24.823  24.868  24.878  24.979  25.014  25.117  25.220  25.246
 25.246  25.261  25.568  25.690  25.698  25.727  26.080  26.105
 26.303  26.387  26.607  26.737  27.940  27.977  28.030  28.098
 28.573  28.745  28.814  29.036  29.570  29.707  29.807  30.879
 31.646  37.154  37.224  46.384  46.406  46.488  46.532  47.984
 48.105  50.273  50.301  50.587  50.946  51.332  58.105  58.201
 58.449  58.537  58.604  58.926  58.974  65.321  78.897  78.914
 78.951  78.988  79.367  79.373  79.432  79.595  80.051  80.118
 82.291  83.282  83.809  92.345  92.345  92.355  92.360  92.474
 92.513  92.528  92.541  92.674  92.685  92.750  92.819  92.909
 93.003 102.784 102.877 131.003 131.021 131.090 131.114 132.347
132.410 149.975 150.011 150.219 150.467 150.702 171.418 208.201
208.201 208.206 208.207 208.208 208.208 208.208 208.212 208.215
228.862 229.650 230.029 233.192 233.202 233.230 233.254 233.507
233.530 233.577 233.678 233.943 234.064 235.320 235.371 235.479
235.534 235.551 235.734 235.744 248.985 248.987 248.987 248.989
248.989 248.990 248.991 248.992 248.993 248.994 248.994 248.995
248.998 248.998 249.000 249.000 249.001 249.002 272.989 273.087
365.380 365.394 365.449 365.463 366.215 366.251 366.378 366.378
366.382 366.385 366.431 366.448 366.459 366.460 366.525 366.529
366.565 366.595 366.916 366.967 448.731 455.767 455.776 455.923
456.111 456.253 642.638 643.325 643.683 711.406 711.412 711.431
711.449 711.636 711.647 711.672 711.744 711.934 711.997 716.637
716.7461027.2081027.2211027.2701027.2821028.1761028.2111574.263
*******2522.255
 
 Beta MOs
 -- Occupied --
-25.724 -25.724 -15.290  -1.566  -1.484  -0.949  -0.725  -0.694
 -0.658  -0.597  -0.587  -0.508
 -- Virtual --
  0.014   0.050   0.058   0.067   0.074   0.129   0.144   0.153
  0.148   0.168   0.156   0.180   0.203   0.246   0.279   0.308
  0.315   0.316   0.330   0.351   0.343   0.381   0.473   0.507
  0.528   0.545   0.570   0.595   0.603   0.617   0.618   0.663
  0.669   0.671   0.693   0.702   0.718   0.747   0.806   0.831
  0.832   0.843   0.869   0.899   0.898   0.909   1.004   1.035
  1.030   1.187   1.183   1.208   1.269   1.327   1.382   1.392
  1.433   1.447   1.499   1.527   1.550   1.566   1.590   1.604
  1.625   1.630   1.644   1.642   1.647   1.651   1.660   1.730
  1.741   1.776   1.830   1.872   1.887   1.900   1.914   1.996
  2.106   2.097   2.120   2.138   2.265   2.287   2.283   2.305
  2.325   2.347   2.370   2.422   2.483   2.518   2.570   2.587
  2.588   2.688   2.721   2.740   2.832   3.116   3.133   3.150
  3.180   3.215   3.284   3.350   3.348   3.387   3.478   3.420
  3.438   3.496   3.595   3.673   3.678   3.758   3.764   3.802
  3.812   3.820   3.839   3.844   3.883   3.902   3.906   3.912
  3.943   3.954   3.976   3.991   4.011   4.009   4.083   4.147
  4.188   4.191   4.333   4.348   4.448   4.488   4.505   4.582
  4.679   4.677   4.705   4.711   4.798   4.785   4.953   4.987
  4.977   5.216   5.254   5.247   5.309   5.347   5.372   5.485
  5.553   5.579   5.594   5.602   5.656   5.682   5.701   5.805
  5.811   5.867   5.938   6.076   6.150   6.224   6.333   6.356
  6.420   6.421   6.508   6.603   6.655   6.663   6.724   6.727
  6.753   7.007   7.024   7.348   7.476   7.612   7.801   7.804
  7.828   7.854   7.854   8.049   8.047   8.049   8.068   8.076
  8.353   8.461   8.538   8.681   8.704   8.785   8.798   8.858
  8.889   8.904   8.904   9.009   9.034   9.096   9.098   9.126
  9.167   9.186   9.189   9.231   9.246   9.267   9.340   9.346
  9.360   9.397   9.463   9.474   9.479   9.478   9.532   9.589
  9.673   9.736   9.744   9.835   9.887   9.895   9.951  10.367
 10.445  10.536  10.602  10.682  10.749  10.789  10.845  10.884
 10.981  11.088  11.205  11.259  11.379  11.385  11.564  11.663
 11.881  11.895  11.954  12.139  12.333  12.449  12.459  12.568
 12.695  12.854  12.875  13.019  13.102  13.264  13.319  13.572
 13.690  13.995  14.190  14.573  14.605  14.727  14.781  14.914
 15.046  15.116  15.126  15.439  15.802  15.875  15.963  15.933
 16.116  16.160  16.621  16.671  16.678  16.756  17.005  17.731
 17.948  18.400  18.606  18.855  19.334  19.695  20.630  20.636
 20.657  20.658  20.721  20.722  20.762  20.777  20.945  21.028
 21.111  21.192  21.386  21.394  21.398  21.428  21.430  21.435
 21.451  21.539  21.572  21.580  24.115  24.190  24.205  24.227
 24.231  24.271  24.341  24.354  24.428  24.478  24.543  24.576
 24.613  24.825  24.872  24.882  24.980  25.015  25.126  25.226
 25.252  25.252  25.267  25.572  25.694  25.702  25.732  26.086
 26.110  26.304  26.388  26.609  26.740  27.946  27.983  28.035
 28.103  28.588  28.751  28.816  29.037  29.621  29.710  29.810
 30.892  31.660  37.157  37.228  46.390  46.412  46.489  46.534
 47.986  48.107  50.307  50.334  50.621  50.956  51.338  58.128
 58.229  58.482  58.564  58.624  58.929  58.977  65.340  78.901
 78.917  78.954  78.991  79.371  79.376  79.433  79.595  80.052
 80.120  82.319  83.287  83.815  92.349  92.349  92.358  92.363
 92.476  92.516  92.530  92.544  92.677  92.688  92.750  92.819
 92.910  93.005 102.786 102.879 131.006 131.024 131.091 131.114
132.347 132.411 149.988 150.023 150.231 150.470 150.704 171.427
208.217 208.216 208.215 208.221 208.224 208.225 208.218 208.213
208.216 228.874 229.651 230.031 233.193 233.203 233.231 233.256
233.509 233.531 233.577 233.678 233.944 234.065 235.326 235.379
235.489 235.540 235.558 235.737 235.746 248.987 248.989 248.989
248.991 248.990 248.992 248.993 248.994 248.994 248.995 248.995
248.995 248.999 248.999 249.002 249.002 249.003 249.003 272.990
273.088 365.382 365.395 365.450 365.463 366.216 366.251 366.379
366.379 366.383 366.386 366.432 366.449 366.460 366.460 366.526
366.530 366.565 366.595 366.916 366.968 448.734 455.772 455.779
455.927 456.113 456.253 642.642 643.326 643.683 711.407 711.413
711.432 711.449 711.637 711.647 711.672 711.745 711.934 711.997
716.637 716.7471027.2081027.2221027.2701027.2831028.1761028.212
*******2521.9652522.255
 --------------------------------------------------------------
 
          Ground-State Mulliken Net Atomic Charges

     Atom                 Charge (a.u.)
  ----------------------------------------
      1 N                     0.449122
      2 F                    -0.224561
      3 F                    -0.224561
  ----------------------------------------
  Sum of atomic charges =    -0.000000

 -----------------------------------------------------------------
                    Cartesian Multipole Moments
 -----------------------------------------------------------------
    Charge (ESU x 10^10)
                -0.0000
    Dipole Moment (Debye)
         X       0.0000      Y      -0.0000      Z       0.3766
       Tot       0.3766
    Quadrupole Moments (Debye-Ang)
        XX     -14.5813     XY       0.0000     YY     -15.8583
        XZ       0.0000     YZ       0.0000     ZZ     -15.3295
    Octopole Moments (Debye-Ang^2)
       XXX       0.0000    XXY      -0.0000    XYY       0.0000
       YYY      -0.0000    XXZ      -0.9268    XYZ       0.0000
       YYZ      -0.7615    XZZ       0.0000    YZZ      -0.0000
       ZZZ      -3.7641
    Hexadecapole Moments (Debye-Ang^3)
      XXXX      -9.9421   XXXY       0.0000   XXYY     -14.6696
      XYYY       0.0000   YYYY     -77.0520   XXXZ       0.0000
      XXYZ       0.0000   XYYZ       0.0000   YYYZ       0.0000
      XXZZ      -6.1121   XYZZ      -0.0000   YYZZ     -16.2366
      XZZZ       0.0000   YZZZ      -0.0000   ZZZZ     -26.9270
 -----------------------------------------------------------------
Archival summary:
1\1\n0098.mhg0\SP\ROHF\BasisUnspecified\21(2)\yhljason\SunNov1521:09:242020SunNov1521:09:242020\0\\#,ROHF,BasisUnspecified,\\0,2\N\F,1,1.36992\F,1,1.36992,2,104.202\\HF=-253.271126\\@

 Total job time:  887.83s(wall), 6994.49s(cpu) 
 Sun Nov 15 21:09:24 2020

        *************************************************************
        *                                                           *
        *  Thank you very much for using Q-Chem.  Have a nice day.  *
        *                                                           *
        *************************************************************


