Q-Chem Developer Version!
                  Welcome to Q-Chem
     A Quantum Leap Into The Future Of Chemistry


 Q-Chem 5.1, Q-Chem, Inc., Pleasanton, CA (2018)

 Yihan Shao,  Zhengting Gan,  E. Epifanovsky,  A. T. B. Gilbert,  M. Wormit,  
 J. Kussmann,  A. W. Lange,  A. Behn,  Jia Deng,  Xintian Feng,  D. Ghosh,  
 M. Goldey,  P. R. Horn,  L. D. Jacobson,  I. Kaliman,  T. Kus,  A. Landau,  
 Jie Liu,  E. I. Proynov,  R. M. Richard,  R. P. Steele,  E. J. Sundstrom,  
 H. L. Woodcock III,  P. M. Zimmerman,  D. Zuev,  B. Albrecht,  E. Alguire,  
 S. A. Baeppler,  D. Barton,  Z. Benda,  Y. A. Bernard,  E. J. Berquist,  
 K. B. Bravaya,  H. Burton,  D. Casanova,  Chun-Min Chang,  Yunqing Chen,  
 A. Chien,  K. D. Closser,  M. P. Coons,  S. Coriani,  S. Dasgupta,  
 A. L. Dempwolff,  M. Diedenhofen,  Hainam Do,  R. G. Edgar,  Po-Tung Fang,  
 S. Faraji,  S. Fatehi,  Qingguo Feng,  K. D. Fenk,  J. Fosso-Tande,  
 Qinghui Ge,  A. Ghysels,  G. Gidofalvi,  J. Gomes,  J. Gonthier,  A. Gunina,  
 D. Hait,  M. W. D. Hanson-Heine,  P. H. P. Harbach,  A. W. Hauser,  
 J. E. Herr,  E. G. Hohenstein,  Z. C. Holden,  Kerwin Hui,  B. C. Huynh,  
 T.-C. Jagau,  Hyunjun Ji,  B. Kaduk,  K. Khistyaev,  Jaehoon Kim,  
 P. Klunzinger,  K. Koh,  D. Kosenkov,  L. Koulias,  T. Kowalczyk,  
 C. M. Krauter,  A. Kunitsa,  Ka Un Lao,  A. Laurent,  K. V. Lawler,  
 Joonho Lee,  D. Lefrancois,  S. Lehtola,  D. S. Levine,  Yi-Pei Li,  
 You-Sheng Lin,  Fenglai Liu,  E. Livshits,  A. Luenser,  P. Manohar,  
 E. Mansoor,  S. F. Manzer,  Shan-Ping Mao,  Yuezhi Mao,  N. Mardirossian,  
 A. V. Marenich,  T. Markovich,  L. A. Martinez-Martinez,  S. A. Maurer,  
 N. J. Mayhall,  S. C. McKenzie,  J.-M. Mewes,  A. F. Morrison,  
 J. W. Mullinax,  K. Nanda,  T. S. Nguyen-Beck,  R. Olivares-Amaya,  
 J. A. Parkhill,  T. M. Perrine,  F. Plasser,  P. Pokhilko,  S. Prager,  
 A. Prociuk,  E. Ramos,  D. R. Rehn,  F. Rob,  M. Schneider,  N. Sergueev,  
 S. M. Sharada,  S. Sharma,  D. W. Small,  T. Stauch,  T. Stein,  
 Yu-Chuan Su,  A. J. W. Thom,  A. Tkatchenko,  T. Tsuchimochi,  N. M. Tubman,  
 L. Vogt,  M. L. Vidal,  O. Vydrov,  M. A. Watson,  J. Wenzel,  
 M. de Wergifosse,  T. A. Wesolowski,  A. White,  J. Witte,  A. Yamada,  
 Jun Yang,  K. Yao,  S. Yeganeh,  S. R. Yost,  Zhi-Qiang You,  A. Zech,  
 Igor Ying Zhang,  Xing Zhang,  Yan Zhao,  Ying Zhu,  B. R. Brooks,  
 G. K. L. Chan,  C. J. Cramer,  M. S. Gordon,  W. J. Hehre,  A. Klamt,  
 M. W. Schmidt,  C. D. Sherrill,  D. G. Truhlar,  A. Aspuru-Guzik,  R. Baer,  
 A. T. Bell,  N. A. Besley,  Jeng-Da Chai,  A. E. DePrince, III,  
 R. A. DiStasio Jr.,  A. Dreuw,  B. D. Dunietz,  T. R. Furlani,  
 Chao-Ping Hsu,  Yousung Jung,  Jing Kong,  D. S. Lambrecht,  WanZhen Liang,  
 C. Ochsenfeld,  V. A. Rassolov,  L. V. Slipchenko,  J. E. Subotnik,  
 T. Van Voorhis,  J. M. Herbert,  A. I. Krylov,  P. M. W. Gill,  M. Head-Gordon

 Contributors to earlier versions of Q-Chem not listed above: 
 R. D. Adamson,  B. Austin,  J. Baker,  G. J. O. Beran,  K. Brandhorst,  
 S. T. Brown,  E. F. C. Byrd,  A. K. Chakraborty,  C.-L. Cheng,  
 Siu Hung Chien,  D. M. Chipman,  D. L. Crittenden,  H. Dachsel,  
 R. J. Doerksen,  A. D. Dutoi,  L. Fusti-Molnar,  W. A. Goddard III,  
 A. Golubeva-Zadorozhnaya,  S. R. Gwaltney,  G. Hawkins,  A. Heyden,  
 S. Hirata,  G. Kedziora,  F. J. Keil,  C. Kelley,  Jihan Kim,  R. A. King,  
 R. Z. Khaliullin,  P. P. Korambath,  W. Kurlancheek,  A. M. Lee,  M. S. Lee,  
 S. V. Levchenko,  Ching Yeh Lin,  D. Liotard,  R. C. Lochan,  I. Lotan,  
 P. E. Maslen,  N. Nair,  D. P. O'Neill,  D. Neuhauser,  E. Neuscamman,  
 C. M. Oana,  R. Olson,  B. Peters,  R. Peverati,  P. A. Pieniazek,  
 Y. M. Rhee,  J. Ritchie,  M. A. Rohrdanz,  E. Rosta,  N. J. Russ,  
 H. F. Schaefer III,  N. E. Schultz,  N. Shenvi,  A. C. Simmonett,  A. Sodt,  
 D. Stuck,  K. S. Thanthiriwatte,  V. Vanovschi,  Tao Wang,  A. Warshel,  
 C. F. Williams,  Q. Wu,  X. Xu,  W. Zhang

 Please cite Q-Chem as follows:
 Y. Shao et al., Mol. Phys. 113, 184-215 (2015)
 DOI: 10.1080/00268976.2014.952696

 Q-Chem 5.1.1 for Intel X86 EM64T Linux

 Parts of Q-Chem use Armadillo 8.300.2 (Tropical Shenanigans).
 http://arma.sourceforge.net/

 Q-Chem begins on Sat Nov 14 21:17:12 2020  

Host: n0031.mhg0
0

     Scratch files written to /local/scratch/users/yhljason/PO2_XYG3_aug-cc-pcVQZ.inp20201114211623//
Input Ideriv = 1
Curr. Ideriv = -1
Max.  Ideriv = 1

Checking the input file for inconsistencies... 	...done.

--------------------------------------------------------------
User input:
--------------------------------------------------------------
$molecule
0 2
P1	0.0000	0.0000	0.2879
O2	0.0000	1.3563	-0.2699
O3	0.0000	-1.3563	-0.2699
$end

$rem
jobtype sp
exchange XYG3
xc_grid 000099000590
basis aug-cc-pcVQZ

max_scf_cycles 200
thresh 14
scf_convergence 8
scf_algorithm gdm
symmetry false
sym_ignore true
unrestricted false
gen_scfman true
internal_stability_iter 15
internal_stability_davidson_iter 200
mem_total 128000
cc_memory 96000
cc_backend xm
mem_static 1500
n_frozen_core 0
$end



--------------------------------------------------------------
 ----------------------------------------------------------------
             Standard Nuclear Orientation (Angstroms)
    I     Atom           X                Y                Z
 ----------------------------------------------------------------
    1      P       0.0000000000     0.0000000000     0.2879000000
    2      O       0.0000000000     1.3563000000    -0.2699000000
    3      O       0.0000000000    -1.3563000000    -0.2699000000
 ----------------------------------------------------------------
 Nuclear Repulsion Energy =    99.0862965144 hartrees
 There are       16 alpha and       15 beta electrons
 Requested basis set is aug-cc-pCVQZ
 There are 92 shells and 352 basis functions

 Total QAlloc Memory Limit 128000 MB
 Mega-Array Size      1467 MB
 MEM_STATIC part      1500 MB

                       Distance Matrix (Angstroms)
             P (  1)   O (  2)
   O (  2)  1.466523
   O (  3)  1.466523  2.712600
 
 A cutoff of  1.0D-14 yielded   3907 shell pairs
 There are     58315 function pairs (     96993 Cartesian)
 
 -------------------------------------------------------
 OpenMP Integral Computing Module                       
 Release: version 1.0, May 2013, Q-Chem Inc. Pittsburgh 
 -------------------------------------------------------
 Integral Job Info:
 Integral job number is                      11
 Integral operator is                         1
 short-range coefficients                     0
 long-range coefficients              100000000
 Omega coefficients                           0
 if combine SR and LR in K                    0
 Integral screening is                        0
 Integral computing path is                   2
 max size of driver memory is           3200000
 size of driver memory is               1704330
 size of scratch memory is             29435624
 max col of scratch BK array              50625
 max len of scratch array in speh3         2114
 max len of scratch index in speh4           50
 max int batch size is                      520
 min int batch size is                       52
 fixed nKL is                                22
 max L of basis functions is                  4
 order of int derivative is                   0
 number of shells is                         92
 number of basis is                         452
 number of cartesian basis is               452
 number of contracted shell pairs          3907
 number of primitive shell pairs          12168
 maxK2 (contraction) of shell pair          169
 max number of K2 of shell pair               1
 max number of CS2 of shell pair            407
 max number of PS2 of shell pair           1014
 mem total for path MDJ                  866296
 -------------------------------------------------------
 Smallest overlap matrix eigenvalue = 2.92E-05

 Scale SEOQF with 1.000000e-01/1.000000e-01/1.000000e-01

 Standard Electronic Orientation quadrupole field applied
 Nucleus-field energy     =     0.0000000018 hartrees
 Guess from superposition of atomic densities
 Warning:  Energy on first SCF cycle will be non-variational
 SAD guess density has 31.000000 electrons

 -----------------------------------------------------------------------
  General SCF calculation program by
  Eric Jon Sundstrom, Paul Horn, Yuezhi Mao, Dmitri Zuev, Alec White,
  David Stuck, Shaama M.S., Shane Yost, Joonho Lee, David Small,
  Daniel Levine, Susi Lehtola, Hugh Burton, Evgeny Epifanovsky
 -----------------------------------------------------------------------
 Exchange:     0.2000 Hartree-Fock + 0.0800 Slater + 0.7200 B88
 Correlation:  0.1900 VWN1RPA + 0.8100 LYP
 Using Euler-Maclaurin-Lebedev (99,590) quadrature formula
Running Object-Oriented ROKS (ROHF)
ROHF occupied orbitals are orthonormal
ROHF occupied orbitals are orthogonal to virtual orbitals
ROHF virtual orbitals are orthonormal
We will preform up to 15 macro iterations over saddle points until a stable solution is found
Energy prior to optimization (guess energy) = -491.150347510908
Begin Timing: Total SCF Calculation
Begin Timing: SCF Single Stationary Point Calculation
begin iterations for algorithm: GDM          
the SCF tolerance is set to 1.00e-08
    1    -491.1503475109      5.62e-01     00000  Descent step
    2    -491.5752188703      2.44e-01     00000  Descent step
    3    -491.8030442653      1.47e-01     00000  Descent step
    4    -491.9023324210      4.49e-02     00000  Normal BFGS step
    5    -491.9129077183      4.43e-02     00000  Normal BFGS step
    6    -491.9143479120      1.82e-02     00000  Normal BFGS step
    7    -491.9146964552      2.37e-03     00000  Normal BFGS step
    8    -491.9147131450      1.69e-03     00000  Normal BFGS step
    9    -491.9147152840      2.58e-04     00000  Normal BFGS step
   10    -491.9147154183      1.01e-04     00000  Normal BFGS step
   11    -491.9147154350      8.44e-06     00000  Normal BFGS step
   12    -491.9147154353      1.54e-06     00000  Normal BFGS step
   13    -491.9147154353      4.90e-07     00000  Normal BFGS step
   14    -491.9147154353      1.89e-07     00000  Normal BFGS step
   15    -491.9147154353      2.23e-07     00000  Normal BFGS step
   16    -491.9147154353      2.85e-07     00000  Normal BFGS step
   17    -491.9147154353      3.31e-08     00000  Normal BFGS step
   18    -491.9147154353      3.18e-08     00000  Normal BFGS step
   19    -491.9147154353      1.52e-08     00000  Normal BFGS step
   20    -491.9147154353      3.88e-09     00000 Convergence criterion met
The disked orbital energies are calculated using alpha and beta Focks
Timing for Single Stationary Point: 1163.00s (wall), 9224.57s (cpu)
Begin Timing: Stability
===================================================
Beginning Test for Internal Stability
===================================================
generating davidson guess vectors based on koopmans-like excitations
    1      2.56e-01     00000 Davidson Iteration
    2      2.76e-02     00000 Davidson Iteration
    3      1.11e-02     00000 Davidson Iteration
    4      4.40e-03     00000 Davidson Iteration
    5      6.40e-04     00000 Davidson Iteration
    6      2.35e-04     00000 Davidson Iteration
    7      1.17e-04     00000 Davidson Iteration
    8      6.55e-05     00000 Davidson Converged
converged_eigenvalues
   0.1812
   0.2003
Threshold for negative eigenvalues: -1.0e-05
solution was a local minimum (stable)
===================================================
End Test for Internal Stability
===================================================
Our SCF solution is stable!
The disked orbital energies are calculated using alpha and beta Focks
Timing for Total SCF: 1908.00s (wall), 15147.66s (cpu)
 Total energy in the final basis set =     -491.9147154353
<S^2> =          0.750000000
 Exchange:     0.8033 Hartree-Fock + -0.0140 Slater + 0.2107 B88
 Correlation:  0.6789 LYP
 Using Euler-Maclaurin-Lebedev (99,590) quadrature formula
 B3LYP orbitals are now ready for the XYG3 calculation.
 XYG3 energy = Exch (0.8033 HF  - 0.0140 Slater + 0.2107 Becke88) + 
               Corr (0.6789 LYP + 0.3211 MP2)
 Total Energy after ks_energy_corrections: -491.407488178123
    ==================================================
              The end of Object-Oriented SCFman       
    ==================================================
 
 Components of the MP2 correlation energy:
        aaaa  correlation energy  =        -0.1966189148 au
        abab  correlation energy  =        -1.1504668751 au
        bbbb  correlation energy  =        -0.2040766167 au
        singles contribution not yet available for XYG3

 Total  XYG3        total energy  =      -491.9059808662 au

 
 --------------------------------------------------------------
 
                    Orbital Energies (a.u.)
 --------------------------------------------------------------
 
 Alpha MOs
 -- Occupied --
-77.179 -19.189 -19.189  -6.665  -4.828  -4.826  -4.822  -1.085
 -1.039  -0.575  -0.477  -0.454  -0.459  -0.385  -0.382  -0.319
 -- Virtual --
 -0.100  -0.015   0.011   0.021   0.029   0.049   0.085   0.094
  0.095   0.101   0.110   0.114   0.133   0.138   0.148   0.173
  0.188   0.210   0.212   0.227   0.247   0.276   0.296   0.310
  0.322   0.327   0.342   0.354   0.371   0.407   0.420   0.426
  0.428   0.457   0.465   0.490   0.506   0.515   0.534   0.541
  0.550   0.620   0.618   0.623   0.647   0.647   0.771   0.801
  0.802   0.830   0.846   0.888   0.895   0.923   0.942   0.973
  0.979   0.985   1.002   1.036   1.031   1.054   1.062   1.073
  1.072   1.156   1.162   1.161   1.198   1.208   1.259   1.270
  1.279   1.314   1.371   1.375   1.431   1.454   1.472   1.471
  1.482   1.482   1.491   1.529   1.548   1.641   1.721   1.722
  1.768   1.775   1.789   1.892   1.887   1.919   1.930   2.015
  2.041   2.038   2.097   2.154   2.162   2.267   2.289   2.405
  2.517   2.570   2.633   2.649   2.667   2.746   2.758   2.792
  2.824   2.822   2.905   2.914   2.927   2.941   2.947   2.984
  3.039   3.044   3.277   3.353   3.353   3.385   3.408   3.417
  3.426   3.468   3.474   3.617   3.621   3.696   3.703   3.720
  3.796   3.813   3.823   3.838   3.879   3.914   3.919   3.944
  3.961   3.957   3.978   4.030   4.085   4.166   4.176   4.184
  4.212   4.293   4.330   4.339   4.366   4.423   4.449   4.456
  4.528   4.615   4.649   4.662   4.794   4.818   5.077   5.075
  5.126   5.194   5.241   5.374   5.644   5.725   5.822   5.989
  6.832   7.360   8.192   8.220   8.497   9.147   9.342   9.374
  9.410   9.479   9.687  10.117  10.117  10.129  10.132  10.192
 10.200  10.214  10.228  10.292  10.309  10.368  10.392  10.393
 10.438  10.441  10.461  10.479  10.511  10.546  10.723  11.313
 11.315  11.333  11.334  11.464  11.498  11.538  11.572  11.903
 11.977  12.003  12.045  12.191  12.239  12.289  12.323  12.397
 12.412  12.583  12.613  12.673  12.726  13.101  13.164  13.791
 14.052  14.868  15.614  15.621  15.886  15.940  16.114  16.382
 16.549  17.249  17.401  23.297  26.437  26.452  26.655  27.287
 27.673  32.688  32.720  32.770  32.955  33.489  33.491  39.279
 39.511  40.384  45.887  45.887  45.893  45.894  45.899  45.901
 45.903  45.910  45.919  46.061  46.131  46.133  46.191  46.302
 46.301  46.333  46.356  46.644  46.756  55.978  55.981  56.112
 56.112  56.202  56.332  56.334  62.803  62.924  68.021  78.873
 78.883  79.029  79.484  79.709 101.976 101.976 101.978 101.978
101.987 101.991 101.994 101.998 102.033 102.036 102.036 102.040
102.059 102.065 115.179 115.208 115.244 115.396 115.829 115.831
123.913 124.098 124.805 196.481 196.518 196.520 196.552 196.612
196.612 196.631 196.636 196.796 196.860 214.181 214.261 326.119
392.450 392.475 392.502 392.628 392.981 392.984 891.054 891.130
 
 Beta MOs
 -- Occupied --
-77.177 -19.183 -19.183  -6.661  -4.826  -4.820  -4.820  -1.068
 -1.020  -0.548  -0.448  -0.446  -0.441  -0.380  -0.368
 -- Virtual --
 -0.205  -0.079  -0.007   0.014   0.022   0.030   0.054   0.088
  0.094   0.098   0.101   0.112   0.121   0.135   0.139   0.148
  0.177   0.188   0.211   0.215   0.240   0.252   0.283   0.305
  0.314   0.328   0.333   0.344   0.357   0.373   0.407   0.421
  0.429   0.434   0.465   0.465   0.492   0.509   0.518   0.535
  0.547   0.553   0.623   0.625   0.625   0.649   0.650   0.775
  0.802   0.804   0.838   0.862   0.904   0.909   0.926   0.944
  0.977   0.996   1.000   1.011   1.045   1.046   1.065   1.068
  1.076   1.076   1.162   1.168   1.171   1.202   1.213   1.270
  1.283   1.288   1.319   1.378   1.381   1.435   1.460   1.476
  1.477   1.484   1.486   1.497   1.533   1.552   1.647   1.728
  1.729   1.776   1.780   1.801   1.895   1.896   1.924   1.937
  2.020   2.048   2.049   2.103   2.157   2.170   2.280   2.295
  2.408   2.529   2.586   2.657   2.673   2.674   2.754   2.768
  2.800   2.833   2.835   2.913   2.921   2.935   2.969   2.974
  2.998   3.051   3.058   3.286   3.357   3.359   3.387   3.417
  3.423   3.431   3.474   3.479   3.626   3.631   3.705   3.711
  3.727   3.803   3.818   3.829   3.843   3.887   3.922   3.925
  3.950   3.963   3.966   3.984   4.036   4.094   4.179   4.181
  4.191   4.221   4.301   4.334   4.347   4.378   4.441   4.454
  4.473   4.533   4.628   4.662   4.675   4.806   4.829   5.082
  5.085   5.130   5.204   5.251   5.388   5.651   5.737   5.834
  6.002   6.839   7.372   8.202   8.232   8.500   9.155   9.349
  9.379   9.415   9.491   9.700  10.120  10.121  10.136  10.139
 10.205  10.213  10.223  10.239  10.303  10.319  10.379  10.402
 10.408  10.451  10.455  10.477  10.494  10.516  10.558  10.738
 11.323  11.324  11.341  11.341  11.479  11.510  11.553  11.583
 11.917  11.993  12.022  12.067  12.201  12.259  12.305  12.336
 12.408  12.424  12.597  12.625  12.692  12.747  13.121  13.187
 13.796  14.063  14.871  15.617  15.624  15.888  15.943  16.116
 16.386  16.554  17.259  17.410  23.301  26.442  26.458  26.657
 27.292  27.677  32.692  32.724  32.781  32.966  33.505  33.506
 39.281  39.518  40.386  45.888  45.888  45.894  45.895  45.900
 45.903  45.904  45.913  45.921  46.067  46.138  46.139  46.198
 46.310  46.310  46.346  46.369  46.657  46.770  55.982  55.985
 56.115  56.115  56.204  56.336  56.338  62.812  62.932  68.024
 78.877  78.887  79.030  79.488  79.712 101.980 101.980 101.981
101.981 101.996 101.998 102.003 102.004 102.041 102.045 102.046
102.052 102.071 102.076 115.181 115.210 115.249 115.401 115.836
115.838 123.915 124.102 124.807 196.483 196.520 196.522 196.554
196.615 196.615 196.635 196.641 196.801 196.865 214.184 214.264
326.122 392.451 392.476 392.504 392.630 392.984 392.986 891.056
891.132
 --------------------------------------------------------------
 
          Ground-State Mulliken Net Atomic Charges

     Atom                 Charge (a.u.)
  ----------------------------------------
      1 P                     1.260589
      2 O                    -0.630294
      3 O                    -0.630294
  ----------------------------------------
  Sum of atomic charges =    -0.000000

 -----------------------------------------------------------------
                    Cartesian Multipole Moments
 -----------------------------------------------------------------
    Charge (ESU x 10^10)
                -0.0000
    Dipole Moment (Debye)
         X       0.0000      Y      -0.0000      Z       1.4478
       Tot       1.4478
    Quadrupole Moments (Debye-Ang)
        XX     -20.9395     XY      -0.0000     YY     -28.7815
        XZ      -0.0000     YZ       0.0000     ZZ     -21.9181
    Octopole Moments (Debye-Ang^2)
       XXX       0.0000    XXY       0.0000    XYY       0.0000
       YYY      -0.0000    XXZ      -0.0663    XYZ       0.0000
       YYZ       0.7949    XZZ      -0.0000    YZZ      -0.0000
       ZZZ      -1.1326
    Hexadecapole Moments (Debye-Ang^3)
      XXXX     -21.6484   XXXY       0.0000   XXYY     -28.7656
      XYYY      -0.0000   YYYY    -159.0998   XXXZ      -0.0000
      XXYZ       0.0000   XYYZ       0.0000   YYYZ       0.0000
      XXZZ      -9.3612   XYZZ       0.0000   YYZZ     -30.6557
      XZZZ      -0.0000   YZZZ       0.0000   ZZZZ     -35.2891
 -----------------------------------------------------------------
Archival summary:
1\1\n0031.mhg0\SP\ROProcedureUnspecified\BasisUnspecified\12(2)\yhljason\SatNov1422:29:162020SatNov1422:29:162020\0\\#,ROProcedureUnspecified,BasisUnspecified,\\0,2\P\O,1,1.46652\O,1,1.46652,2,135.289\\\@

 Total job time:  4323.61s(wall), 34294.04s(cpu) 
 Sat Nov 14 22:29:16 2020

        *************************************************************
        *                                                           *
        *  Thank you very much for using Q-Chem.  Have a nice day.  *
        *                                                           *
        *************************************************************


 
User input: 2 of 7 
 
Q-Chem Developer Version!
                  Welcome to Q-Chem
     A Quantum Leap Into The Future Of Chemistry


 Q-Chem 5.1, Q-Chem, Inc., Pleasanton, CA (2018)

 Yihan Shao,  Zhengting Gan,  E. Epifanovsky,  A. T. B. Gilbert,  M. Wormit,  
 J. Kussmann,  A. W. Lange,  A. Behn,  Jia Deng,  Xintian Feng,  D. Ghosh,  
 M. Goldey,  P. R. Horn,  L. D. Jacobson,  I. Kaliman,  T. Kus,  A. Landau,  
 Jie Liu,  E. I. Proynov,  R. M. Richard,  R. P. Steele,  E. J. Sundstrom,  
 H. L. Woodcock III,  P. M. Zimmerman,  D. Zuev,  B. Albrecht,  E. Alguire,  
 S. A. Baeppler,  D. Barton,  Z. Benda,  Y. A. Bernard,  E. J. Berquist,  
 K. B. Bravaya,  H. Burton,  D. Casanova,  Chun-Min Chang,  Yunqing Chen,  
 A. Chien,  K. D. Closser,  M. P. Coons,  S. Coriani,  S. Dasgupta,  
 A. L. Dempwolff,  M. Diedenhofen,  Hainam Do,  R. G. Edgar,  Po-Tung Fang,  
 S. Faraji,  S. Fatehi,  Qingguo Feng,  K. D. Fenk,  J. Fosso-Tande,  
 Qinghui Ge,  A. Ghysels,  G. Gidofalvi,  J. Gomes,  J. Gonthier,  A. Gunina,  
 D. Hait,  M. W. D. Hanson-Heine,  P. H. P. Harbach,  A. W. Hauser,  
 J. E. Herr,  E. G. Hohenstein,  Z. C. Holden,  Kerwin Hui,  B. C. Huynh,  
 T.-C. Jagau,  Hyunjun Ji,  B. Kaduk,  K. Khistyaev,  Jaehoon Kim,  
 P. Klunzinger,  K. Koh,  D. Kosenkov,  L. Koulias,  T. Kowalczyk,  
 C. M. Krauter,  A. Kunitsa,  Ka Un Lao,  A. Laurent,  K. V. Lawler,  
 Joonho Lee,  D. Lefrancois,  S. Lehtola,  D. S. Levine,  Yi-Pei Li,  
 You-Sheng Lin,  Fenglai Liu,  E. Livshits,  A. Luenser,  P. Manohar,  
 E. Mansoor,  S. F. Manzer,  Shan-Ping Mao,  Yuezhi Mao,  N. Mardirossian,  
 A. V. Marenich,  T. Markovich,  L. A. Martinez-Martinez,  S. A. Maurer,  
 N. J. Mayhall,  S. C. McKenzie,  J.-M. Mewes,  A. F. Morrison,  
 J. W. Mullinax,  K. Nanda,  T. S. Nguyen-Beck,  R. Olivares-Amaya,  
 J. A. Parkhill,  T. M. Perrine,  F. Plasser,  P. Pokhilko,  S. Prager,  
 A. Prociuk,  E. Ramos,  D. R. Rehn,  F. Rob,  M. Schneider,  N. Sergueev,  
 S. M. Sharada,  S. Sharma,  D. W. Small,  T. Stauch,  T. Stein,  
 Yu-Chuan Su,  A. J. W. Thom,  A. Tkatchenko,  T. Tsuchimochi,  N. M. Tubman,  
 L. Vogt,  M. L. Vidal,  O. Vydrov,  M. A. Watson,  J. Wenzel,  
 M. de Wergifosse,  T. A. Wesolowski,  A. White,  J. Witte,  A. Yamada,  
 Jun Yang,  K. Yao,  S. Yeganeh,  S. R. Yost,  Zhi-Qiang You,  A. Zech,  
 Igor Ying Zhang,  Xing Zhang,  Yan Zhao,  Ying Zhu,  B. R. Brooks,  
 G. K. L. Chan,  C. J. Cramer,  M. S. Gordon,  W. J. Hehre,  A. Klamt,  
 M. W. Schmidt,  C. D. Sherrill,  D. G. Truhlar,  A. Aspuru-Guzik,  R. Baer,  
 A. T. Bell,  N. A. Besley,  Jeng-Da Chai,  A. E. DePrince, III,  
 R. A. DiStasio Jr.,  A. Dreuw,  B. D. Dunietz,  T. R. Furlani,  
 Chao-Ping Hsu,  Yousung Jung,  Jing Kong,  D. S. Lambrecht,  WanZhen Liang,  
 C. Ochsenfeld,  V. A. Rassolov,  L. V. Slipchenko,  J. E. Subotnik,  
 T. Van Voorhis,  J. M. Herbert,  A. I. Krylov,  P. M. W. Gill,  M. Head-Gordon

 Contributors to earlier versions of Q-Chem not listed above: 
 R. D. Adamson,  B. Austin,  J. Baker,  G. J. O. Beran,  K. Brandhorst,  
 S. T. Brown,  E. F. C. Byrd,  A. K. Chakraborty,  C.-L. Cheng,  
 Siu Hung Chien,  D. M. Chipman,  D. L. Crittenden,  H. Dachsel,  
 R. J. Doerksen,  A. D. Dutoi,  L. Fusti-Molnar,  W. A. Goddard III,  
 A. Golubeva-Zadorozhnaya,  S. R. Gwaltney,  G. Hawkins,  A. Heyden,  
 S. Hirata,  G. Kedziora,  F. J. Keil,  C. Kelley,  Jihan Kim,  R. A. King,  
 R. Z. Khaliullin,  P. P. Korambath,  W. Kurlancheek,  A. M. Lee,  M. S. Lee,  
 S. V. Levchenko,  Ching Yeh Lin,  D. Liotard,  R. C. Lochan,  I. Lotan,  
 P. E. Maslen,  N. Nair,  D. P. O'Neill,  D. Neuhauser,  E. Neuscamman,  
 C. M. Oana,  R. Olson,  B. Peters,  R. Peverati,  P. A. Pieniazek,  
 Y. M. Rhee,  J. Ritchie,  M. A. Rohrdanz,  E. Rosta,  N. J. Russ,  
 H. F. Schaefer III,  N. E. Schultz,  N. Shenvi,  A. C. Simmonett,  A. Sodt,  
 D. Stuck,  K. S. Thanthiriwatte,  V. Vanovschi,  Tao Wang,  A. Warshel,  
 C. F. Williams,  Q. Wu,  X. Xu,  W. Zhang

 Please cite Q-Chem as follows:
 Y. Shao et al., Mol. Phys. 113, 184-215 (2015)
 DOI: 10.1080/00268976.2014.952696

 Q-Chem 5.1.1 for Intel X86 EM64T Linux

 Parts of Q-Chem use Armadillo 8.300.2 (Tropical Shenanigans).
 http://arma.sourceforge.net/

 Q-Chem begins on Sat Nov 14 22:29:16 2020  

Host: n0031.mhg0
0

     Scratch files written to /local/scratch/users/yhljason/PO2_XYG3_aug-cc-pcVQZ.inp20201114211623//
The previous job contains 0 fragments, simply inherited here
Input Ideriv = 1
Curr. Ideriv = -1
Max.  Ideriv = 1

Checking the input file for inconsistencies... 	...done.

--------------------------------------------------------------
User input:
--------------------------------------------------------------
$molecule
read
$end

$rem
jobtype sp
exchange XYG3
xc_grid 000099000590
basis aug-cc-pcVQZ

max_scf_cycles 200
thresh 14
scf_convergence 8
mem_total 128000
cc_memory 96000
cc_backend xm
mem_static 1500
symmetry false
sym_ignore true
scf_guess read
unrestricted false
scf_algorithm gdm
n_frozen_core 0
$end



$multipole_field
XX 0.0001
$end


--------------------------------------------------------------
 ----------------------------------------------------------------
             Standard Nuclear Orientation (Angstroms)
    I     Atom           X                Y                Z
 ----------------------------------------------------------------
    1      P       0.0000000000     0.0000000000     0.2879000000
    2      O       0.0000000000     1.3563000000    -0.2699000000
    3      O       0.0000000000    -1.3563000000    -0.2699000000
 ----------------------------------------------------------------
 Nuclear Repulsion Energy =    99.0862965144 hartrees
 There are       16 alpha and       15 beta electrons
 Requested basis set is aug-cc-pCVQZ
 There are 92 shells and 352 basis functions

 Total QAlloc Memory Limit 128000 MB
 Mega-Array Size      1467 MB
 MEM_STATIC part      1500 MB

                       Distance Matrix (Angstroms)
             P (  1)   O (  2)
   O (  2)  1.466523
   O (  3)  1.466523  2.712600
 
 Applying Cartesian multipole field
    Component          Value
    ---------          -----
     (2,0,0)        1.00000E-04
 A cutoff of  1.0D-14 yielded   3907 shell pairs
 There are     58315 function pairs (     96993 Cartesian)
 
 -------------------------------------------------------
 OpenMP Integral Computing Module                       
 Release: version 1.0, May 2013, Q-Chem Inc. Pittsburgh 
 -------------------------------------------------------
 Integral Job Info:
 Integral job number is                      11
 Integral operator is                         1
 short-range coefficients                     0
 long-range coefficients              100000000
 Omega coefficients                           0
 if combine SR and LR in K                    0
 Integral screening is                        0
 Integral computing path is                   2
 max size of driver memory is           3200000
 size of driver memory is               1704330
 size of scratch memory is             29435624
 max col of scratch BK array              50625
 max len of scratch array in speh3         2114
 max len of scratch index in speh4           50
 max int batch size is                      520
 min int batch size is                       52
 fixed nKL is                                22
 max L of basis functions is                  4
 order of int derivative is                   0
 number of shells is                         92
 number of basis is                         452
 number of cartesian basis is               452
 number of contracted shell pairs          3907
 number of primitive shell pairs          12168
 maxK2 (contraction) of shell pair          169
 max number of K2 of shell pair               1
 max number of CS2 of shell pair            407
 max number of PS2 of shell pair           1014
 mem total for path MDJ                  866296
 -------------------------------------------------------
 Smallest overlap matrix eigenvalue = 2.92E-05
 Guess MOs from SCF MO coefficient file
 Reading MOs from coefficient file
 Reading MOs from coefficient file
 A restricted hybrid HF-DFT SCF calculation will be
 performed using Geometric Direct Minimization
 Exchange:     0.2000 Hartree-Fock + 0.0800 Slater + 0.7200 B88
 Correlation:  0.1900 VWN1RPA + 0.8100 LYP
 Using Euler-Maclaurin-Lebedev (99,590) quadrature formula
 SCF converges when RMS gradient is below 1.0E-08
Using Q-Chem read-in guess as SCF_GUESS READ specified.

 using 8 threads for integral computing
 -------------------------------------------------------
 OpenMP Integral computing Module                
 Release: version 2.0, May 2017, Q-Chem Inc. Pleasanton 
 -------------------------------------------------------
TIMEINFO->: J/JK contribution 445.84 sec.
 -------------------------------------------------------
 OpenMP BLAS3 based DFT computing Module                
 Release: version 1.0, May 2013, Q-Chem Inc. Pittsburgh 
 -------------------------------------------------------
 ---------------------------------------
  Cycle       Energy        RMS Gradient
 ---------------------------------------
    1    -491.9162722395      4.98E-04 Normal BFGS step
TIMEINFO->: J/JK contribution 443.02 sec.
    2    -491.9162725332      4.22E-04 Normal BFGS step
TIMEINFO->: J/JK contribution 414.95 sec.
    3    -491.9162726763      3.02E-04 Normal BFGS step
TIMEINFO->: J/JK contribution 414.11 sec.
    4    -491.9162727444      2.32E-04 Normal BFGS step
TIMEINFO->: J/JK contribution 414.26 sec.
    5    -491.9162727818      2.98E-05 Normal BFGS step
TIMEINFO->: J/JK contribution 406.27 sec.
    6    -491.9162727835      9.90E-06 Normal BFGS step
TIMEINFO->: J/JK contribution 398.26 sec.
    7    -491.9162727837      1.34E-06 Normal BFGS step
TIMEINFO->: J/JK contribution 378.86 sec.
    8    -491.9162727837      4.14E-07 Normal BFGS step
TIMEINFO->: J/JK contribution 374.34 sec.
    9    -491.9162727837      1.73E-07 Normal BFGS step
TIMEINFO->: J/JK contribution 356.84 sec.
   GDM::WARNING energy changes are now smaller than effective accuracy.
   GDM::        calculation will continue, but THRESH should be increased
   GDM::        or SCF_CONVERGENCE decreased.
   GDM::        effective_thresh =   1.600000000000000E-010
   10    -491.9162727837      2.20E-07 Normal BFGS step
TIMEINFO->: J/JK contribution 353.90 sec.
   11    -491.9162727837      1.93E-07 Normal BFGS step
TIMEINFO->: J/JK contribution 352.10 sec.
   12    -491.9162727837      3.65E-08 Normal BFGS step
TIMEINFO->: J/JK contribution 333.73 sec.
   13    -491.9162727837      7.83E-09 Convergence criterion met
 ---------------------------------------
 B3LYP orbitals are now ready for the XYG3 calculation.
 XYG3 energy = Exch (0.8033 HF  - 0.0140 Slater + 0.2107 Becke88) + 
               Corr (0.6789 LYP + 0.3211 MP2)
 SCF time:  CPU 5397.24 s  wall 682.16 s
 SCF   energy in the final basis set = -491.40900800
 Total energy in the final basis set = -491.40900800
 
 Components of the MP2 correlation energy:
        aaaa  correlation energy  =        -0.1966409404 au
        abab  correlation energy  =        -1.1505618756 au
        bbbb  correlation energy  =        -0.2041043373 au
        singles contribution not yet available for XYG3

 Total  XYG3        total energy  =      -491.9075471283 au

 
 --------------------------------------------------------------
 
                    Orbital Energies (a.u.)
 --------------------------------------------------------------
 
 Alpha MOs
 -- Occupied --
-77.179 -19.189 -19.189  -6.665  -4.828  -4.826  -4.823  -1.085
 -1.039  -0.575  -0.477  -0.455  -0.459  -0.385  -0.382  -0.319
 -- Virtual --
 -0.101  -0.017   0.009   0.019   0.025   0.048   0.084   0.093
  0.094   0.099   0.109   0.113   0.131   0.135   0.147   0.172
  0.186   0.209   0.211   0.226   0.245   0.274   0.295   0.309
  0.322   0.327   0.341   0.353   0.371   0.406   0.419   0.425
  0.428   0.456   0.464   0.489   0.505   0.514   0.533   0.540
  0.549   0.616   0.621   0.622   0.647   0.647   0.770   0.800
  0.800   0.830   0.845   0.887   0.894   0.923   0.942   0.972
  0.978   0.983   1.001   1.033   1.035   1.054   1.061   1.072
  1.072   1.155   1.161   1.160   1.198   1.207   1.259   1.270
  1.279   1.314   1.371   1.375   1.430   1.453   1.471   1.471
  1.482   1.482   1.491   1.529   1.547   1.641   1.720   1.722
  1.767   1.774   1.789   1.887   1.891   1.919   1.930   2.014
  2.037   2.041   2.097   2.154   2.161   2.266   2.289   2.404
  2.517   2.570   2.632   2.648   2.667   2.746   2.758   2.792
  2.822   2.824   2.905   2.913   2.927   2.942   2.947   2.983
  3.039   3.044   3.276   3.353   3.353   3.385   3.407   3.417
  3.426   3.467   3.474   3.617   3.621   3.695   3.702   3.719
  3.796   3.813   3.823   3.838   3.879   3.914   3.919   3.944
  3.957   3.960   3.978   4.030   4.085   4.166   4.175   4.183
  4.212   4.292   4.329   4.339   4.366   4.423   4.449   4.456
  4.527   4.615   4.649   4.662   4.794   4.818   5.075   5.077
  5.125   5.194   5.241   5.374   5.644   5.725   5.822   5.989
  6.832   7.360   8.192   8.220   8.497   9.147   9.342   9.374
  9.410   9.479   9.686  10.116  10.117  10.129  10.132  10.192
 10.199  10.214  10.227  10.292  10.308  10.368  10.392  10.393
 10.438  10.441  10.460  10.479  10.511  10.546  10.723  11.313
 11.315  11.332  11.333  11.464  11.498  11.537  11.572  11.903
 11.977  12.003  12.044  12.191  12.239  12.288  12.323  12.397
 12.411  12.583  12.613  12.673  12.725  13.101  13.164  13.791
 14.052  14.868  15.614  15.621  15.886  15.940  16.114  16.382
 16.549  17.248  17.401  23.296  26.437  26.452  26.654  27.287
 27.673  32.687  32.719  32.769  32.955  33.489  33.491  39.279
 39.511  40.384  45.887  45.887  45.892  45.894  45.899  45.901
 45.902  45.910  45.919  46.060  46.130  46.132  46.191  46.301
 46.302  46.333  46.355  46.644  46.756  55.978  55.981  56.111
 56.112  56.202  56.332  56.334  62.803  62.924  68.021  78.873
 78.882  79.028  79.483  79.709 101.975 101.975 101.976 101.977
101.988 101.992 101.994 101.999 102.033 102.036 102.036 102.039
102.059 102.065 115.178 115.207 115.244 115.396 115.829 115.831
123.913 124.098 124.805 196.480 196.518 196.520 196.552 196.612
196.612 196.631 196.636 196.796 196.859 214.180 214.261 326.119
392.450 392.475 392.502 392.627 392.981 392.983 891.054 891.130
 
 Beta MOs
 -- Occupied --
-77.177 -19.183 -19.183  -6.661  -4.826  -4.820  -4.820  -1.068
 -1.021  -0.549  -0.449  -0.446  -0.441  -0.380  -0.368
 -- Virtual --
 -0.206  -0.079  -0.008   0.013   0.021   0.027   0.053   0.088
  0.094   0.097   0.099   0.111   0.120   0.134   0.135   0.147
  0.176   0.187   0.210   0.214   0.239   0.251   0.282   0.304
  0.313   0.327   0.331   0.343   0.355   0.372   0.406   0.420
  0.428   0.433   0.464   0.464   0.492   0.508   0.517   0.534
  0.546   0.552   0.623   0.623   0.625   0.648   0.649   0.775
  0.802   0.803   0.837   0.862   0.904   0.908   0.925   0.943
  0.976   0.996   1.000   1.010   1.044   1.045   1.064   1.068
  1.076   1.075   1.161   1.168   1.171   1.201   1.212   1.270
  1.282   1.287   1.318   1.377   1.381   1.435   1.460   1.475
  1.477   1.484   1.485   1.497   1.533   1.551   1.646   1.727
  1.729   1.775   1.780   1.801   1.896   1.894   1.923   1.936
  2.019   2.048   2.047   2.103   2.157   2.170   2.279   2.294
  2.408   2.529   2.585   2.657   2.673   2.674   2.754   2.768
  2.800   2.835   2.833   2.912   2.920   2.934   2.968   2.974
  2.998   3.051   3.058   3.285   3.357   3.359   3.387   3.417
  3.423   3.430   3.474   3.479   3.626   3.631   3.705   3.711
  3.727   3.803   3.817   3.829   3.843   3.887   3.922   3.925
  3.949   3.965   3.963   3.984   4.036   4.094   4.178   4.181
  4.191   4.221   4.300   4.333   4.346   4.378   4.440   4.454
  4.473   4.532   4.628   4.662   4.675   4.806   4.829   5.085
  5.082   5.129   5.204   5.251   5.388   5.650   5.737   5.834
  6.001   6.839   7.372   8.202   8.231   8.499   9.155   9.348
  9.379   9.415   9.491   9.700  10.119  10.121  10.136  10.138
 10.204  10.213  10.223  10.239  10.302  10.319  10.378  10.402
 10.408  10.450  10.455  10.476  10.493  10.516  10.558  10.738
 11.322  11.324  11.341  11.341  11.479  11.510  11.553  11.582
 11.917  11.993  12.022  12.067  12.201  12.258  12.304  12.336
 12.408  12.424  12.597  12.624  12.691  12.747  13.121  13.186
 13.796  14.063  14.870  15.617  15.624  15.887  15.942  16.116
 16.386  16.553  17.258  17.409  23.300  26.442  26.457  26.657
 27.291  27.676  32.692  32.724  32.781  32.966  33.504  33.506
 39.281  39.517  40.386  45.888  45.888  45.894  45.895  45.900
 45.902  45.904  45.912  45.921  46.066  46.138  46.139  46.198
 46.310  46.310  46.346  46.369  46.657  46.770  55.982  55.985
 56.115  56.115  56.204  56.336  56.338  62.811  62.932  68.024
 78.877  78.887  79.030  79.487  79.711 101.980 101.980 101.981
101.981 101.995 101.998 102.002 102.004 102.040 102.044 102.045
102.051 102.071 102.076 115.180 115.209 115.249 115.401 115.836
115.838 123.915 124.102 124.807 196.482 196.520 196.522 196.554
196.615 196.614 196.635 196.640 196.800 196.864 214.184 214.264
326.122 392.451 392.475 392.504 392.629 392.983 392.986 891.055
891.131
 --------------------------------------------------------------
 
          Ground-State Mulliken Net Atomic Charges

     Atom                 Charge (a.u.)
  ----------------------------------------
      1 P                     1.259765
      2 O                    -0.629882
      3 O                    -0.629882
  ----------------------------------------
  Sum of atomic charges =    -0.000000

 -----------------------------------------------------------------
                    Cartesian Multipole Moments
 -----------------------------------------------------------------
    Charge (ESU x 10^10)
                -0.0000
    Dipole Moment (Debye)
         X      -0.0000      Y      -0.0000      Z       1.4471
       Tot       1.4471
    Quadrupole Moments (Debye-Ang)
        XX     -20.9542     XY       0.0000     YY     -28.7800
        XZ      -0.0000     YZ       0.0000     ZZ     -21.9191
    Octopole Moments (Debye-Ang^2)
       XXX      -0.0000    XXY       0.0000    XYY       0.0000
       YYY      -0.0000    XXZ      -0.0695    XYZ       0.0000
       YYZ       0.7927    XZZ      -0.0000    YZZ      -0.0000
       ZZZ      -1.1328
    Hexadecapole Moments (Debye-Ang^3)
      XXXX     -21.7090   XXXY       0.0000   XXYY     -28.7850
      XYYY       0.0000   YYYY    -159.1045   XXXZ      -0.0000
      XXYZ       0.0000   XYYZ      -0.0000   YYYZ       0.0000
      XXZZ      -9.3747   XYZZ       0.0000   YYZZ     -30.6589
      XZZZ      -0.0000   YZZZ      -0.0000   ZZZZ     -35.2968
 -----------------------------------------------------------------
Archival summary:
1\1\n0031.mhg0\SP\ROProcedureUnspecified\BasisUnspecified\12(2)\yhljason\SatNov1423:22:382020SatNov1423:22:382020\0\\#,ROProcedureUnspecified,BasisUnspecified,\\0,2\P\O,1,1.46652\O,1,1.46652,2,135.289\\\@

 Total job time:  3201.71s(wall), 25272.43s(cpu) 
 Sat Nov 14 23:22:38 2020

        *************************************************************
        *                                                           *
        *  Thank you very much for using Q-Chem.  Have a nice day.  *
        *                                                           *
        *************************************************************


 
User input: 3 of 7 
 
Q-Chem Developer Version!
                  Welcome to Q-Chem
     A Quantum Leap Into The Future Of Chemistry


 Q-Chem 5.1, Q-Chem, Inc., Pleasanton, CA (2018)

 Yihan Shao,  Zhengting Gan,  E. Epifanovsky,  A. T. B. Gilbert,  M. Wormit,  
 J. Kussmann,  A. W. Lange,  A. Behn,  Jia Deng,  Xintian Feng,  D. Ghosh,  
 M. Goldey,  P. R. Horn,  L. D. Jacobson,  I. Kaliman,  T. Kus,  A. Landau,  
 Jie Liu,  E. I. Proynov,  R. M. Richard,  R. P. Steele,  E. J. Sundstrom,  
 H. L. Woodcock III,  P. M. Zimmerman,  D. Zuev,  B. Albrecht,  E. Alguire,  
 S. A. Baeppler,  D. Barton,  Z. Benda,  Y. A. Bernard,  E. J. Berquist,  
 K. B. Bravaya,  H. Burton,  D. Casanova,  Chun-Min Chang,  Yunqing Chen,  
 A. Chien,  K. D. Closser,  M. P. Coons,  S. Coriani,  S. Dasgupta,  
 A. L. Dempwolff,  M. Diedenhofen,  Hainam Do,  R. G. Edgar,  Po-Tung Fang,  
 S. Faraji,  S. Fatehi,  Qingguo Feng,  K. D. Fenk,  J. Fosso-Tande,  
 Qinghui Ge,  A. Ghysels,  G. Gidofalvi,  J. Gomes,  J. Gonthier,  A. Gunina,  
 D. Hait,  M. W. D. Hanson-Heine,  P. H. P. Harbach,  A. W. Hauser,  
 J. E. Herr,  E. G. Hohenstein,  Z. C. Holden,  Kerwin Hui,  B. C. Huynh,  
 T.-C. Jagau,  Hyunjun Ji,  B. Kaduk,  K. Khistyaev,  Jaehoon Kim,  
 P. Klunzinger,  K. Koh,  D. Kosenkov,  L. Koulias,  T. Kowalczyk,  
 C. M. Krauter,  A. Kunitsa,  Ka Un Lao,  A. Laurent,  K. V. Lawler,  
 Joonho Lee,  D. Lefrancois,  S. Lehtola,  D. S. Levine,  Yi-Pei Li,  
 You-Sheng Lin,  Fenglai Liu,  E. Livshits,  A. Luenser,  P. Manohar,  
 E. Mansoor,  S. F. Manzer,  Shan-Ping Mao,  Yuezhi Mao,  N. Mardirossian,  
 A. V. Marenich,  T. Markovich,  L. A. Martinez-Martinez,  S. A. Maurer,  
 N. J. Mayhall,  S. C. McKenzie,  J.-M. Mewes,  A. F. Morrison,  
 J. W. Mullinax,  K. Nanda,  T. S. Nguyen-Beck,  R. Olivares-Amaya,  
 J. A. Parkhill,  T. M. Perrine,  F. Plasser,  P. Pokhilko,  S. Prager,  
 A. Prociuk,  E. Ramos,  D. R. Rehn,  F. Rob,  M. Schneider,  N. Sergueev,  
 S. M. Sharada,  S. Sharma,  D. W. Small,  T. Stauch,  T. Stein,  
 Yu-Chuan Su,  A. J. W. Thom,  A. Tkatchenko,  T. Tsuchimochi,  N. M. Tubman,  
 L. Vogt,  M. L. Vidal,  O. Vydrov,  M. A. Watson,  J. Wenzel,  
 M. de Wergifosse,  T. A. Wesolowski,  A. White,  J. Witte,  A. Yamada,  
 Jun Yang,  K. Yao,  S. Yeganeh,  S. R. Yost,  Zhi-Qiang You,  A. Zech,  
 Igor Ying Zhang,  Xing Zhang,  Yan Zhao,  Ying Zhu,  B. R. Brooks,  
 G. K. L. Chan,  C. J. Cramer,  M. S. Gordon,  W. J. Hehre,  A. Klamt,  
 M. W. Schmidt,  C. D. Sherrill,  D. G. Truhlar,  A. Aspuru-Guzik,  R. Baer,  
 A. T. Bell,  N. A. Besley,  Jeng-Da Chai,  A. E. DePrince, III,  
 R. A. DiStasio Jr.,  A. Dreuw,  B. D. Dunietz,  T. R. Furlani,  
 Chao-Ping Hsu,  Yousung Jung,  Jing Kong,  D. S. Lambrecht,  WanZhen Liang,  
 C. Ochsenfeld,  V. A. Rassolov,  L. V. Slipchenko,  J. E. Subotnik,  
 T. Van Voorhis,  J. M. Herbert,  A. I. Krylov,  P. M. W. Gill,  M. Head-Gordon

 Contributors to earlier versions of Q-Chem not listed above: 
 R. D. Adamson,  B. Austin,  J. Baker,  G. J. O. Beran,  K. Brandhorst,  
 S. T. Brown,  E. F. C. Byrd,  A. K. Chakraborty,  C.-L. Cheng,  
 Siu Hung Chien,  D. M. Chipman,  D. L. Crittenden,  H. Dachsel,  
 R. J. Doerksen,  A. D. Dutoi,  L. Fusti-Molnar,  W. A. Goddard III,  
 A. Golubeva-Zadorozhnaya,  S. R. Gwaltney,  G. Hawkins,  A. Heyden,  
 S. Hirata,  G. Kedziora,  F. J. Keil,  C. Kelley,  Jihan Kim,  R. A. King,  
 R. Z. Khaliullin,  P. P. Korambath,  W. Kurlancheek,  A. M. Lee,  M. S. Lee,  
 S. V. Levchenko,  Ching Yeh Lin,  D. Liotard,  R. C. Lochan,  I. Lotan,  
 P. E. Maslen,  N. Nair,  D. P. O'Neill,  D. Neuhauser,  E. Neuscamman,  
 C. M. Oana,  R. Olson,  B. Peters,  R. Peverati,  P. A. Pieniazek,  
 Y. M. Rhee,  J. Ritchie,  M. A. Rohrdanz,  E. Rosta,  N. J. Russ,  
 H. F. Schaefer III,  N. E. Schultz,  N. Shenvi,  A. C. Simmonett,  A. Sodt,  
 D. Stuck,  K. S. Thanthiriwatte,  V. Vanovschi,  Tao Wang,  A. Warshel,  
 C. F. Williams,  Q. Wu,  X. Xu,  W. Zhang

 Please cite Q-Chem as follows:
 Y. Shao et al., Mol. Phys. 113, 184-215 (2015)
 DOI: 10.1080/00268976.2014.952696

 Q-Chem 5.1.1 for Intel X86 EM64T Linux

 Parts of Q-Chem use Armadillo 8.300.2 (Tropical Shenanigans).
 http://arma.sourceforge.net/

 Q-Chem begins on Sat Nov 14 23:22:38 2020  

Host: n0031.mhg0
0

     Scratch files written to /local/scratch/users/yhljason/PO2_XYG3_aug-cc-pcVQZ.inp20201114211623//
The previous job contains 0 fragments, simply inherited here
Input Ideriv = 1
Curr. Ideriv = -1
Max.  Ideriv = 1

Checking the input file for inconsistencies... 	...done.

--------------------------------------------------------------
User input:
--------------------------------------------------------------
$molecule
read
$end

$rem
jobtype sp
exchange XYG3
xc_grid 000099000590
basis aug-cc-pcVQZ

max_scf_cycles 200
thresh 14
scf_convergence 8
mem_total 128000
cc_memory 96000
cc_backend xm
mem_static 1500
symmetry false
sym_ignore true
scf_guess read
unrestricted false
scf_algorithm gdm
n_frozen_core 0
$end



$multipole_field
XX -0.0001
$end


--------------------------------------------------------------
 ----------------------------------------------------------------
             Standard Nuclear Orientation (Angstroms)
    I     Atom           X                Y                Z
 ----------------------------------------------------------------
    1      P       0.0000000000     0.0000000000     0.2879000000
    2      O       0.0000000000     1.3563000000    -0.2699000000
    3      O       0.0000000000    -1.3563000000    -0.2699000000
 ----------------------------------------------------------------
 Nuclear Repulsion Energy =    99.0862965144 hartrees
 There are       16 alpha and       15 beta electrons
 Requested basis set is aug-cc-pCVQZ
 There are 92 shells and 352 basis functions

 Total QAlloc Memory Limit 128000 MB
 Mega-Array Size      1467 MB
 MEM_STATIC part      1500 MB

                       Distance Matrix (Angstroms)
             P (  1)   O (  2)
   O (  2)  1.466523
   O (  3)  1.466523  2.712600
 
 Applying Cartesian multipole field
    Component          Value
    ---------          -----
     (2,0,0)       -1.00000E-04
 A cutoff of  1.0D-14 yielded   3907 shell pairs
 There are     58315 function pairs (     96993 Cartesian)
 
 -------------------------------------------------------
 OpenMP Integral Computing Module                       
 Release: version 1.0, May 2013, Q-Chem Inc. Pittsburgh 
 -------------------------------------------------------
 Integral Job Info:
 Integral job number is                      11
 Integral operator is                         1
 short-range coefficients                     0
 long-range coefficients              100000000
 Omega coefficients                           0
 if combine SR and LR in K                    0
 Integral screening is                        0
 Integral computing path is                   2
 max size of driver memory is           3200000
 size of driver memory is               1704330
 size of scratch memory is             29435624
 max col of scratch BK array              50625
 max len of scratch array in speh3         2114
 max len of scratch index in speh4           50
 max int batch size is                      520
 min int batch size is                       52
 fixed nKL is                                22
 max L of basis functions is                  4
 order of int derivative is                   0
 number of shells is                         92
 number of basis is                         452
 number of cartesian basis is               452
 number of contracted shell pairs          3907
 number of primitive shell pairs          12168
 maxK2 (contraction) of shell pair          169
 max number of K2 of shell pair               1
 max number of CS2 of shell pair            407
 max number of PS2 of shell pair           1014
 mem total for path MDJ                  866296
 -------------------------------------------------------
 Smallest overlap matrix eigenvalue = 2.92E-05
 Guess MOs from SCF MO coefficient file
 Reading MOs from coefficient file
 Reading MOs from coefficient file
 A restricted hybrid HF-DFT SCF calculation will be
 performed using Geometric Direct Minimization
 Exchange:     0.2000 Hartree-Fock + 0.0800 Slater + 0.7200 B88
 Correlation:  0.1900 VWN1RPA + 0.8100 LYP
 Using Euler-Maclaurin-Lebedev (99,590) quadrature formula
 SCF converges when RMS gradient is below 1.0E-08
Using Q-Chem read-in guess as SCF_GUESS READ specified.

 using 8 threads for integral computing
 -------------------------------------------------------
 OpenMP Integral computing Module                
 Release: version 2.0, May 2017, Q-Chem Inc. Pleasanton 
 -------------------------------------------------------
TIMEINFO->: J/JK contribution 445.59 sec.
 -------------------------------------------------------
 OpenMP BLAS3 based DFT computing Module                
 Release: version 1.0, May 2013, Q-Chem Inc. Pittsburgh 
 -------------------------------------------------------
 ---------------------------------------
  Cycle       Energy        RMS Gradient
 ---------------------------------------
    1    -491.9131569956      9.72E-04 Normal BFGS step
TIMEINFO->: J/JK contribution 442.37 sec.
    2    -491.9131581825      8.43E-04 Normal BFGS step
TIMEINFO->: J/JK contribution 416.88 sec.
    3    -491.9131587366      6.09E-04 Normal BFGS step
TIMEINFO->: J/JK contribution 417.04 sec.
    4    -491.9131590212      4.43E-04 Normal BFGS step
TIMEINFO->: J/JK contribution 421.00 sec.
    5    -491.9131591649      5.75E-05 Normal BFGS step
TIMEINFO->: J/JK contribution 411.38 sec.
    6    -491.9131591719      1.97E-05 Normal BFGS step
TIMEINFO->: J/JK contribution 403.80 sec.
    7    -491.9131591724      2.75E-06 Normal BFGS step
TIMEINFO->: J/JK contribution 383.90 sec.
    8    -491.9131591725      7.73E-07 Normal BFGS step
TIMEINFO->: J/JK contribution 381.67 sec.
   GDM::WARNING energy changes are now smaller than effective accuracy.
   GDM::        calculation will continue, but THRESH should be increased
   GDM::        or SCF_CONVERGENCE decreased.
   GDM::        effective_thresh =   1.600000000000000E-010
    9    -491.9131591725      3.22E-07 Normal BFGS step
TIMEINFO->: J/JK contribution 364.46 sec.
   10    -491.9131591725      1.36E-07 Normal BFGS step
TIMEINFO->: J/JK contribution 357.87 sec.
   GDM::WARNING energy changes are now smaller than effective accuracy.
   GDM::        calculation will continue, but THRESH should be increased
   GDM::        or SCF_CONVERGENCE decreased.
   GDM::        effective_thresh =   1.600000000000000E-010
   11    -491.9131591725      6.12E-08 Normal BFGS step
TIMEINFO->: J/JK contribution 346.43 sec.
   12    -491.9131591725      1.56E-07 Normal BFGS step
TIMEINFO->: J/JK contribution 341.49 sec.
   13    -491.9131591725      8.81E-09 Convergence criterion met
 ---------------------------------------
 B3LYP orbitals are now ready for the XYG3 calculation.
 XYG3 energy = Exch (0.8033 HF  - 0.0140 Slater + 0.2107 Becke88) + 
               Corr (0.6789 LYP + 0.3211 MP2)
 SCF time:  CPU 5448.66 s  wall 688.76 s
 SCF   energy in the final basis set = -491.40596923
 Total energy in the final basis set = -491.40596923
 
 Components of the MP2 correlation energy:
        aaaa  correlation energy  =        -0.1965970086 au
        abab  correlation energy  =        -1.1503723342 au
        bbbb  correlation energy  =        -0.2040490161 au
        singles contribution not yet available for XYG3

 Total  XYG3        total energy  =      -491.9044157034 au

 
 --------------------------------------------------------------
 
                    Orbital Energies (a.u.)
 --------------------------------------------------------------
 
 Alpha MOs
 -- Occupied --
-77.179 -19.188 -19.188  -6.664  -4.828  -4.826  -4.822  -1.085
 -1.038  -0.575  -0.476  -0.454  -0.459  -0.385  -0.382  -0.318
 -- Virtual --
 -0.100  -0.015   0.012   0.022   0.033   0.050   0.085   0.095
  0.096   0.103   0.112   0.115   0.134   0.141   0.149   0.175
  0.189   0.211   0.212   0.228   0.248   0.276   0.297   0.310
  0.324   0.329   0.343   0.355   0.372   0.408   0.422   0.427
  0.429   0.458   0.465   0.490   0.507   0.516   0.534   0.542
  0.551   0.618   0.622   0.623   0.648   0.648   0.771   0.802
  0.803   0.831   0.846   0.889   0.895   0.923   0.943   0.973
  0.979   0.984   1.002   1.034   1.037   1.055   1.062   1.072
  1.073   1.156   1.162   1.161   1.199   1.208   1.260   1.271
  1.280   1.315   1.372   1.376   1.431   1.454   1.471   1.472
  1.483   1.483   1.492   1.529   1.548   1.642   1.721   1.723
  1.768   1.774   1.790   1.888   1.892   1.920   1.930   2.015
  2.038   2.042   2.097   2.155   2.162   2.267   2.290   2.405
  2.518   2.571   2.632   2.649   2.668   2.747   2.759   2.792
  2.822   2.824   2.905   2.914   2.928   2.942   2.948   2.984
  3.039   3.044   3.277   3.353   3.353   3.385   3.408   3.417
  3.426   3.468   3.475   3.618   3.621   3.696   3.703   3.720
  3.796   3.813   3.824   3.838   3.879   3.915   3.919   3.945
  3.958   3.961   3.978   4.030   4.086   4.167   4.176   4.184
  4.212   4.293   4.330   4.339   4.366   4.423   4.449   4.456
  4.528   4.615   4.649   4.662   4.794   4.819   5.075   5.077
  5.126   5.195   5.242   5.375   5.645   5.725   5.822   5.989
  6.832   7.360   8.192   8.220   8.497   9.147   9.342   9.375
  9.411   9.480   9.687  10.117  10.117  10.129  10.132  10.193
 10.200  10.214  10.228  10.292  10.309  10.369  10.392  10.394
 10.438  10.442  10.461  10.480  10.511  10.547  10.723  11.313
 11.316  11.333  11.334  11.465  11.499  11.538  11.572  11.904
 11.978  12.004  12.045  12.191  12.239  12.289  12.323  12.397
 12.412  12.584  12.614  12.674  12.726  13.102  13.165  13.791
 14.052  14.868  15.615  15.622  15.886  15.941  16.114  16.382
 16.549  17.249  17.401  23.297  26.437  26.452  26.655  27.287
 27.673  32.688  32.720  32.770  32.955  33.489  33.491  39.279
 39.512  40.384  45.887  45.887  45.893  45.894  45.899  45.901
 45.903  45.910  45.919  46.061  46.131  46.133  46.191  46.301
 46.302  46.334  46.356  46.644  46.756  55.978  55.981  56.112
 56.112  56.202  56.333  56.335  62.804  62.924  68.021  78.873
 78.883  79.029  79.484  79.710 101.975 101.975 101.976 101.977
101.988 101.992 101.995 101.999 102.034 102.037 102.037 102.040
102.060 102.066 115.179 115.208 115.244 115.396 115.829 115.832
123.914 124.098 124.805 196.481 196.518 196.520 196.552 196.612
196.613 196.631 196.637 196.797 196.860 214.181 214.261 326.120
392.451 392.475 392.502 392.628 392.981 392.984 891.055 891.131
 
 Beta MOs
 -- Occupied --
-77.177 -19.182 -19.182  -6.661  -4.825  -4.820  -4.819  -1.068
 -1.020  -0.548  -0.448  -0.446  -0.440  -0.379  -0.368
 -- Virtual --
 -0.205  -0.078  -0.005   0.016   0.023   0.034   0.055   0.089
  0.095   0.099   0.103   0.114   0.122   0.137   0.142   0.149
  0.179   0.190   0.212   0.216   0.240   0.254   0.284   0.306
  0.315   0.329   0.333   0.345   0.358   0.374   0.408   0.423
  0.430   0.434   0.466   0.466   0.493   0.510   0.518   0.536
  0.548   0.554   0.625   0.624   0.626   0.650   0.649   0.776
  0.803   0.805   0.838   0.863   0.905   0.909   0.926   0.944
  0.977   0.997   1.001   1.011   1.045   1.046   1.065   1.069
  1.076   1.076   1.162   1.169   1.172   1.202   1.213   1.271
  1.283   1.288   1.319   1.378   1.382   1.436   1.461   1.478
  1.476   1.484   1.486   1.497   1.534   1.552   1.647   1.728
  1.730   1.776   1.781   1.801   1.897   1.895   1.924   1.937
  2.020   2.049   2.048   2.103   2.158   2.170   2.280   2.295
  2.409   2.529   2.586   2.658   2.674   2.675   2.755   2.768
  2.801   2.836   2.834   2.913   2.921   2.935   2.969   2.974
  2.998   3.052   3.058   3.286   3.358   3.359   3.387   3.417
  3.423   3.431   3.475   3.479   3.626   3.631   3.705   3.712
  3.727   3.803   3.818   3.829   3.844   3.887   3.922   3.926
  3.950   3.966   3.964   3.985   4.036   4.095   4.179   4.182
  4.192   4.221   4.301   4.334   4.347   4.379   4.441   4.454
  4.473   4.533   4.629   4.662   4.675   4.807   4.830   5.085
  5.082   5.130   5.204   5.251   5.389   5.651   5.737   5.835
  6.002   6.839   7.372   8.202   8.232   8.500   9.155   9.349
  9.379   9.415   9.492   9.700  10.120  10.121  10.137  10.139
 10.205  10.213  10.224  10.239  10.303  10.319  10.379  10.402
 10.408  10.451  10.455  10.477  10.494  10.517  10.558  10.738
 11.323  11.324  11.342  11.342  11.479  11.510  11.553  11.583
 11.917  11.993  12.023  12.067  12.201  12.259  12.305  12.336
 12.409  12.424  12.597  12.625  12.692  12.747  13.121  13.187
 13.797  14.063  14.871  15.617  15.624  15.888  15.943  16.116
 16.387  16.554  17.259  17.410  23.301  26.443  26.458  26.657
 27.292  27.677  32.692  32.724  32.782  32.966  33.505  33.506
 39.282  39.518  40.387  45.889  45.889  45.894  45.895  45.901
 45.903  45.905  45.913  45.921  46.067  46.138  46.140  46.199
 46.310  46.310  46.346  46.369  46.657  46.771  55.982  55.985
 56.115  56.115  56.204  56.337  56.338  62.812  62.932  68.025
 78.877  78.887  79.030  79.488  79.712 101.981 101.980 101.982
101.982 101.995 101.998 102.003 102.004 102.041 102.045 102.046
102.052 102.072 102.076 115.181 115.210 115.250 115.401 115.837
115.839 123.915 124.102 124.807 196.483 196.521 196.523 196.555
196.615 196.615 196.636 196.641 196.801 196.865 214.184 214.264
326.122 392.451 392.476 392.504 392.630 392.984 392.987 891.056
891.132
 --------------------------------------------------------------
 
          Ground-State Mulliken Net Atomic Charges

     Atom                 Charge (a.u.)
  ----------------------------------------
      1 P                     1.261388
      2 O                    -0.630694
      3 O                    -0.630694
  ----------------------------------------
  Sum of atomic charges =    -0.000000

 -----------------------------------------------------------------
                    Cartesian Multipole Moments
 -----------------------------------------------------------------
    Charge (ESU x 10^10)
                -0.0000
    Dipole Moment (Debye)
         X      -0.0000      Y      -0.0000      Z       1.4485
       Tot       1.4485
    Quadrupole Moments (Debye-Ang)
        XX     -20.9250     XY       0.0000     YY     -28.7830
        XZ      -0.0000     YZ       0.0000     ZZ     -21.9171
    Octopole Moments (Debye-Ang^2)
       XXX      -0.0000    XXY       0.0000    XYY      -0.0000
       YYY      -0.0000    XXZ      -0.0632    XYZ      -0.0000
       YYZ       0.7972    XZZ      -0.0000    YZZ      -0.0000
       ZZZ      -1.1323
    Hexadecapole Moments (Debye-Ang^3)
      XXXX     -21.5886   XXXY       0.0000   XXYY     -28.7463
      XYYY       0.0000   YYYY    -159.0951   XXXZ      -0.0000
      XXYZ       0.0000   XYYZ      -0.0000   YYYZ       0.0000
      XXZZ      -9.3478   XYZZ       0.0000   YYZZ     -30.6525
      XZZZ      -0.0000   YZZZ      -0.0000   ZZZZ     -35.2815
 -----------------------------------------------------------------
Archival summary:
1\1\n0031.mhg0\SP\ROProcedureUnspecified\BasisUnspecified\12(2)\yhljason\SunNov1500:16:102020SunNov1500:16:102020\0\\#,ROProcedureUnspecified,BasisUnspecified,\\0,2\P\O,1,1.46652\O,1,1.46652,2,135.289\\\@

 Total job time:  3212.25s(wall), 25352.39s(cpu) 
 Sun Nov 15 00:16:10 2020

        *************************************************************
        *                                                           *
        *  Thank you very much for using Q-Chem.  Have a nice day.  *
        *                                                           *
        *************************************************************


 
User input: 4 of 7 
 
Q-Chem Developer Version!
                  Welcome to Q-Chem
     A Quantum Leap Into The Future Of Chemistry


 Q-Chem 5.1, Q-Chem, Inc., Pleasanton, CA (2018)

 Yihan Shao,  Zhengting Gan,  E. Epifanovsky,  A. T. B. Gilbert,  M. Wormit,  
 J. Kussmann,  A. W. Lange,  A. Behn,  Jia Deng,  Xintian Feng,  D. Ghosh,  
 M. Goldey,  P. R. Horn,  L. D. Jacobson,  I. Kaliman,  T. Kus,  A. Landau,  
 Jie Liu,  E. I. Proynov,  R. M. Richard,  R. P. Steele,  E. J. Sundstrom,  
 H. L. Woodcock III,  P. M. Zimmerman,  D. Zuev,  B. Albrecht,  E. Alguire,  
 S. A. Baeppler,  D. Barton,  Z. Benda,  Y. A. Bernard,  E. J. Berquist,  
 K. B. Bravaya,  H. Burton,  D. Casanova,  Chun-Min Chang,  Yunqing Chen,  
 A. Chien,  K. D. Closser,  M. P. Coons,  S. Coriani,  S. Dasgupta,  
 A. L. Dempwolff,  M. Diedenhofen,  Hainam Do,  R. G. Edgar,  Po-Tung Fang,  
 S. Faraji,  S. Fatehi,  Qingguo Feng,  K. D. Fenk,  J. Fosso-Tande,  
 Qinghui Ge,  A. Ghysels,  G. Gidofalvi,  J. Gomes,  J. Gonthier,  A. Gunina,  
 D. Hait,  M. W. D. Hanson-Heine,  P. H. P. Harbach,  A. W. Hauser,  
 J. E. Herr,  E. G. Hohenstein,  Z. C. Holden,  Kerwin Hui,  B. C. Huynh,  
 T.-C. Jagau,  Hyunjun Ji,  B. Kaduk,  K. Khistyaev,  Jaehoon Kim,  
 P. Klunzinger,  K. Koh,  D. Kosenkov,  L. Koulias,  T. Kowalczyk,  
 C. M. Krauter,  A. Kunitsa,  Ka Un Lao,  A. Laurent,  K. V. Lawler,  
 Joonho Lee,  D. Lefrancois,  S. Lehtola,  D. S. Levine,  Yi-Pei Li,  
 You-Sheng Lin,  Fenglai Liu,  E. Livshits,  A. Luenser,  P. Manohar,  
 E. Mansoor,  S. F. Manzer,  Shan-Ping Mao,  Yuezhi Mao,  N. Mardirossian,  
 A. V. Marenich,  T. Markovich,  L. A. Martinez-Martinez,  S. A. Maurer,  
 N. J. Mayhall,  S. C. McKenzie,  J.-M. Mewes,  A. F. Morrison,  
 J. W. Mullinax,  K. Nanda,  T. S. Nguyen-Beck,  R. Olivares-Amaya,  
 J. A. Parkhill,  T. M. Perrine,  F. Plasser,  P. Pokhilko,  S. Prager,  
 A. Prociuk,  E. Ramos,  D. R. Rehn,  F. Rob,  M. Schneider,  N. Sergueev,  
 S. M. Sharada,  S. Sharma,  D. W. Small,  T. Stauch,  T. Stein,  
 Yu-Chuan Su,  A. J. W. Thom,  A. Tkatchenko,  T. Tsuchimochi,  N. M. Tubman,  
 L. Vogt,  M. L. Vidal,  O. Vydrov,  M. A. Watson,  J. Wenzel,  
 M. de Wergifosse,  T. A. Wesolowski,  A. White,  J. Witte,  A. Yamada,  
 Jun Yang,  K. Yao,  S. Yeganeh,  S. R. Yost,  Zhi-Qiang You,  A. Zech,  
 Igor Ying Zhang,  Xing Zhang,  Yan Zhao,  Ying Zhu,  B. R. Brooks,  
 G. K. L. Chan,  C. J. Cramer,  M. S. Gordon,  W. J. Hehre,  A. Klamt,  
 M. W. Schmidt,  C. D. Sherrill,  D. G. Truhlar,  A. Aspuru-Guzik,  R. Baer,  
 A. T. Bell,  N. A. Besley,  Jeng-Da Chai,  A. E. DePrince, III,  
 R. A. DiStasio Jr.,  A. Dreuw,  B. D. Dunietz,  T. R. Furlani,  
 Chao-Ping Hsu,  Yousung Jung,  Jing Kong,  D. S. Lambrecht,  WanZhen Liang,  
 C. Ochsenfeld,  V. A. Rassolov,  L. V. Slipchenko,  J. E. Subotnik,  
 T. Van Voorhis,  J. M. Herbert,  A. I. Krylov,  P. M. W. Gill,  M. Head-Gordon

 Contributors to earlier versions of Q-Chem not listed above: 
 R. D. Adamson,  B. Austin,  J. Baker,  G. J. O. Beran,  K. Brandhorst,  
 S. T. Brown,  E. F. C. Byrd,  A. K. Chakraborty,  C.-L. Cheng,  
 Siu Hung Chien,  D. M. Chipman,  D. L. Crittenden,  H. Dachsel,  
 R. J. Doerksen,  A. D. Dutoi,  L. Fusti-Molnar,  W. A. Goddard III,  
 A. Golubeva-Zadorozhnaya,  S. R. Gwaltney,  G. Hawkins,  A. Heyden,  
 S. Hirata,  G. Kedziora,  F. J. Keil,  C. Kelley,  Jihan Kim,  R. A. King,  
 R. Z. Khaliullin,  P. P. Korambath,  W. Kurlancheek,  A. M. Lee,  M. S. Lee,  
 S. V. Levchenko,  Ching Yeh Lin,  D. Liotard,  R. C. Lochan,  I. Lotan,  
 P. E. Maslen,  N. Nair,  D. P. O'Neill,  D. Neuhauser,  E. Neuscamman,  
 C. M. Oana,  R. Olson,  B. Peters,  R. Peverati,  P. A. Pieniazek,  
 Y. M. Rhee,  J. Ritchie,  M. A. Rohrdanz,  E. Rosta,  N. J. Russ,  
 H. F. Schaefer III,  N. E. Schultz,  N. Shenvi,  A. C. Simmonett,  A. Sodt,  
 D. Stuck,  K. S. Thanthiriwatte,  V. Vanovschi,  Tao Wang,  A. Warshel,  
 C. F. Williams,  Q. Wu,  X. Xu,  W. Zhang

 Please cite Q-Chem as follows:
 Y. Shao et al., Mol. Phys. 113, 184-215 (2015)
 DOI: 10.1080/00268976.2014.952696

 Q-Chem 5.1.1 for Intel X86 EM64T Linux

 Parts of Q-Chem use Armadillo 8.300.2 (Tropical Shenanigans).
 http://arma.sourceforge.net/

 Q-Chem begins on Sun Nov 15 00:16:10 2020  

Host: n0031.mhg0
0

     Scratch files written to /local/scratch/users/yhljason/PO2_XYG3_aug-cc-pcVQZ.inp20201114211623//
The previous job contains 0 fragments, simply inherited here
Input Ideriv = 1
Curr. Ideriv = -1
Max.  Ideriv = 1

Checking the input file for inconsistencies... 	...done.

--------------------------------------------------------------
User input:
--------------------------------------------------------------
$molecule
read
$end

$rem
jobtype sp
exchange XYG3
xc_grid 000099000590
basis aug-cc-pcVQZ

max_scf_cycles 200
thresh 14
scf_convergence 8
mem_total 128000
cc_memory 96000
cc_backend xm
mem_static 1500
symmetry false
sym_ignore true
scf_guess read
unrestricted false
scf_algorithm gdm
n_frozen_core 0
$end



$multipole_field
YY 0.0001
$end


--------------------------------------------------------------
 ----------------------------------------------------------------
             Standard Nuclear Orientation (Angstroms)
    I     Atom           X                Y                Z
 ----------------------------------------------------------------
    1      P       0.0000000000     0.0000000000     0.2879000000
    2      O       0.0000000000     1.3563000000    -0.2699000000
    3      O       0.0000000000    -1.3563000000    -0.2699000000
 ----------------------------------------------------------------
 Nuclear Repulsion Energy =    99.0862965144 hartrees
 There are       16 alpha and       15 beta electrons
 Requested basis set is aug-cc-pCVQZ
 There are 92 shells and 352 basis functions

 Total QAlloc Memory Limit 128000 MB
 Mega-Array Size      1467 MB
 MEM_STATIC part      1500 MB

                       Distance Matrix (Angstroms)
             P (  1)   O (  2)
   O (  2)  1.466523
   O (  3)  1.466523  2.712600
 
 Applying Cartesian multipole field
    Component          Value
    ---------          -----
     (0,2,0)        1.00000E-04
 Nucleus-field energy     =     0.0105106419 hartrees
 A cutoff of  1.0D-14 yielded   3907 shell pairs
 There are     58315 function pairs (     96993 Cartesian)
 
 -------------------------------------------------------
 OpenMP Integral Computing Module                       
 Release: version 1.0, May 2013, Q-Chem Inc. Pittsburgh 
 -------------------------------------------------------
 Integral Job Info:
 Integral job number is                      11
 Integral operator is                         1
 short-range coefficients                     0
 long-range coefficients              100000000
 Omega coefficients                           0
 if combine SR and LR in K                    0
 Integral screening is                        0
 Integral computing path is                   2
 max size of driver memory is           3200000
 size of driver memory is               1704330
 size of scratch memory is             29435624
 max col of scratch BK array              50625
 max len of scratch array in speh3         2114
 max len of scratch index in speh4           50
 max int batch size is                      520
 min int batch size is                       52
 fixed nKL is                                22
 max L of basis functions is                  4
 order of int derivative is                   0
 number of shells is                         92
 number of basis is                         452
 number of cartesian basis is               452
 number of contracted shell pairs          3907
 number of primitive shell pairs          12168
 maxK2 (contraction) of shell pair          169
 max number of K2 of shell pair               1
 max number of CS2 of shell pair            407
 max number of PS2 of shell pair           1014
 mem total for path MDJ                  866296
 -------------------------------------------------------
 Smallest overlap matrix eigenvalue = 2.92E-05
 Guess MOs from SCF MO coefficient file
 Reading MOs from coefficient file
 Reading MOs from coefficient file
 A restricted hybrid HF-DFT SCF calculation will be
 performed using Geometric Direct Minimization
 Exchange:     0.2000 Hartree-Fock + 0.0800 Slater + 0.7200 B88
 Correlation:  0.1900 VWN1RPA + 0.8100 LYP
 Using Euler-Maclaurin-Lebedev (99,590) quadrature formula
 SCF converges when RMS gradient is below 1.0E-08
Using Q-Chem read-in guess as SCF_GUESS READ specified.

 using 8 threads for integral computing
 -------------------------------------------------------
 OpenMP Integral computing Module                
 Release: version 2.0, May 2017, Q-Chem Inc. Pleasanton 
 -------------------------------------------------------
TIMEINFO->: J/JK contribution 439.13 sec.
 -------------------------------------------------------
 OpenMP BLAS3 based DFT computing Module                
 Release: version 1.0, May 2013, Q-Chem Inc. Pittsburgh 
 -------------------------------------------------------
 ---------------------------------------
  Cycle       Energy        RMS Gradient
 ---------------------------------------
    1    -491.9168548383      6.97E-04 Normal BFGS step
TIMEINFO->: J/JK contribution 436.95 sec.
    2    -491.9168562815      8.86E-04 Normal BFGS step
TIMEINFO->: J/JK contribution 415.10 sec.
    3    -491.9168570911      6.18E-04 Normal BFGS step
TIMEINFO->: J/JK contribution 413.71 sec.
    4    -491.9168571438      2.78E-04 Normal BFGS step
TIMEINFO->: J/JK contribution 410.46 sec.
    5    -491.9168574261      5.83E-05 Normal BFGS step
TIMEINFO->: J/JK contribution 404.67 sec.
    6    -491.9168574293      2.02E-05 Normal BFGS step
TIMEINFO->: J/JK contribution 392.39 sec.
    7    -491.9168574298      1.54E-06 Normal BFGS step
TIMEINFO->: J/JK contribution 390.77 sec.
    8    -491.9168574298      1.32E-06 Normal BFGS step
TIMEINFO->: J/JK contribution 370.08 sec.
    9    -491.9168574298      4.69E-07 Normal BFGS step
TIMEINFO->: J/JK contribution 369.33 sec.
   10    -491.9168574298      1.76E-07 Normal BFGS step
TIMEINFO->: J/JK contribution 355.05 sec.
   GDM::WARNING energy changes are now smaller than effective accuracy.
   GDM::        calculation will continue, but THRESH should be increased
   GDM::        or SCF_CONVERGENCE decreased.
   GDM::        effective_thresh =   1.600000000000000E-010
   11    -491.9168574298      3.95E-07 Normal BFGS step
TIMEINFO->: J/JK contribution 349.54 sec.
   12    -491.9168574298      5.28E-08 Normal BFGS step
TIMEINFO->: J/JK contribution 344.15 sec.
   13    -491.9168574298      2.60E-08 Normal BFGS step
TIMEINFO->: J/JK contribution 323.00 sec.
   14    -491.9168574298      2.20E-09 Convergence criterion met
 ---------------------------------------
 B3LYP orbitals are now ready for the XYG3 calculation.
 XYG3 energy = Exch (0.8033 HF  - 0.0140 Slater + 0.2107 Becke88) + 
               Corr (0.6789 LYP + 0.3211 MP2)
 SCF time:  CPU 5741.95 s  wall 726.18 s
 SCF   energy in the final basis set = -491.40971430
 Total energy in the final basis set = -491.40971430
 
 Components of the MP2 correlation energy:
        aaaa  correlation energy  =        -0.1965889806 au
        abab  correlation energy  =        -1.1502361661 au
        bbbb  correlation energy  =        -0.2039916587 au
        singles contribution not yet available for XYG3

 Total  XYG3        total energy  =      -491.9080957705 au

 
 --------------------------------------------------------------
 
                    Orbital Energies (a.u.)
 --------------------------------------------------------------
 
 Alpha MOs
 -- Occupied --
-77.180 -19.189 -19.189  -6.665  -4.829  -4.827  -4.823  -1.086
 -1.039  -0.576  -0.477  -0.455  -0.460  -0.386  -0.383  -0.319
 -- Virtual --
 -0.101  -0.017   0.009   0.017   0.028   0.047   0.082   0.090
  0.095   0.099   0.110   0.111   0.131   0.136   0.145   0.171
  0.186   0.208   0.210   0.224   0.246   0.273   0.295   0.308
  0.323   0.327   0.340   0.352   0.369   0.405   0.419   0.425
  0.427   0.456   0.463   0.487   0.505   0.513   0.532   0.539
  0.549   0.615   0.620   0.621   0.646   0.646   0.769   0.799
  0.800   0.829   0.844   0.887   0.894   0.922   0.941   0.971
  0.978   0.983   1.001   1.033   1.036   1.054   1.061   1.071
  1.072   1.155   1.161   1.160   1.197   1.207   1.258   1.269
  1.278   1.313   1.370   1.374   1.430   1.452   1.470   1.471
  1.481   1.481   1.490   1.528   1.547   1.640   1.720   1.721
  1.767   1.773   1.788   1.886   1.891   1.918   1.929   2.013
  2.037   2.040   2.096   2.153   2.160   2.266   2.288   2.404
  2.517   2.570   2.632   2.648   2.667   2.746   2.758   2.791
  2.821   2.823   2.904   2.913   2.927   2.941   2.947   2.983
  3.038   3.043   3.276   3.352   3.352   3.384   3.407   3.416
  3.425   3.467   3.473   3.616   3.620   3.695   3.702   3.719
  3.795   3.812   3.823   3.837   3.878   3.913   3.918   3.943
  3.956   3.960   3.977   4.029   4.085   4.166   4.175   4.183
  4.211   4.292   4.329   4.338   4.365   4.422   4.448   4.455
  4.527   4.614   4.648   4.661   4.793   4.818   5.074   5.076
  5.125   5.194   5.241   5.374   5.644   5.724   5.821   5.988
  6.831   7.359   8.191   8.220   8.496   9.146   9.341   9.374
  9.410   9.479   9.686  10.116  10.116  10.128  10.131  10.192
 10.199  10.213  10.227  10.291  10.308  10.367  10.391  10.393
 10.437  10.441  10.460  10.479  10.510  10.546  10.722  11.312
 11.315  11.332  11.333  11.464  11.498  11.537  11.571  11.903
 11.977  12.003  12.044  12.190  12.238  12.288  12.322  12.396
 12.411  12.582  12.613  12.673  12.725  13.101  13.164  13.790
 14.052  14.867  15.614  15.621  15.885  15.940  16.114  16.381
 16.548  17.248  17.400  23.296  26.436  26.451  26.654  27.286
 27.672  32.687  32.719  32.769  32.954  33.488  33.490  39.278
 39.511  40.383  45.886  45.887  45.892  45.893  45.898  45.900
 45.902  45.909  45.918  46.060  46.130  46.132  46.190  46.300
 46.301  46.333  46.355  46.643  46.755  55.977  55.980  56.111
 56.111  56.201  56.332  56.334  62.803  62.923  68.020  78.872
 78.882  79.028  79.483  79.709 101.974 101.974 101.975 101.976
101.987 101.991 101.994 101.998 102.033 102.036 102.036 102.039
102.059 102.065 115.178 115.207 115.243 115.395 115.828 115.831
123.913 124.097 124.804 196.480 196.517 196.519 196.551 196.611
196.611 196.630 196.635 196.796 196.859 214.180 214.260 326.119
392.450 392.474 392.501 392.627 392.980 392.983 891.054 891.130
 
 Beta MOs
 -- Occupied --
-77.178 -19.183 -19.183  -6.662  -4.826  -4.821  -4.820  -1.069
 -1.021  -0.549  -0.449  -0.447  -0.441  -0.380  -0.369
 -- Virtual --
 -0.206  -0.079  -0.007   0.013   0.019   0.029   0.053   0.085
  0.091   0.097   0.098   0.111   0.118   0.134   0.137   0.145
  0.175   0.187   0.209   0.213   0.237   0.251   0.282   0.304
  0.313   0.327   0.332   0.342   0.355   0.371   0.405   0.420
  0.428   0.432   0.463   0.463   0.490   0.508   0.516   0.534
  0.545   0.551   0.622   0.622   0.623   0.648   0.647   0.774
  0.801   0.803   0.837   0.861   0.904   0.908   0.924   0.943
  0.975   0.996   1.000   1.010   1.044   1.045   1.064   1.067
  1.075   1.075   1.161   1.167   1.171   1.201   1.212   1.269
  1.281   1.286   1.318   1.377   1.380   1.434   1.459   1.476
  1.475   1.483   1.484   1.496   1.532   1.551   1.645   1.727
  1.728   1.775   1.779   1.800   1.895   1.894   1.923   1.936
  2.019   2.048   2.047   2.102   2.156   2.169   2.279   2.294
  2.408   2.528   2.585   2.657   2.673   2.674   2.754   2.767
  2.799   2.835   2.833   2.912   2.920   2.934   2.968   2.973
  2.997   3.050   3.057   3.285   3.356   3.358   3.386   3.416
  3.422   3.430   3.474   3.478   3.625   3.630   3.704   3.711
  3.726   3.802   3.817   3.828   3.842   3.886   3.921   3.924
  3.949   3.965   3.962   3.984   4.035   4.094   4.178   4.180
  4.190   4.220   4.300   4.333   4.346   4.378   4.440   4.453
  4.472   4.532   4.627   4.661   4.674   4.806   4.829   5.084
  5.081   5.129   5.203   5.250   5.388   5.650   5.736   5.834
  6.001   6.838   7.371   8.202   8.231   8.499   9.154   9.348
  9.378   9.414   9.491   9.699  10.119  10.120  10.136  10.138
 10.204  10.212  10.223  10.238  10.302  10.318  10.378  10.401
 10.407  10.450  10.454  10.476  10.493  10.516  10.557  10.737
 11.322  11.323  11.341  11.341  11.478  11.509  11.552  11.582
 11.916  11.992  12.022  12.066  12.200  12.258  12.304  12.335
 12.408  12.423  12.596  12.624  12.691  12.746  13.120  13.186
 13.796  14.062  14.870  15.616  15.623  15.887  15.942  16.115
 16.386  16.553  17.258  17.409  23.300  26.442  26.457  26.656
 27.291  27.676  32.691  32.723  32.781  32.965  33.504  33.505
 39.281  39.517  40.386  45.888  45.888  45.893  45.894  45.900
 45.902  45.904  45.912  45.920  46.066  46.137  46.139  46.198
 46.309  46.309  46.345  46.368  46.656  46.769  55.981  55.984
 56.114  56.114  56.204  56.336  56.337  62.811  62.931  68.024
 78.876  78.886  79.029  79.487  79.711 101.979 101.979 101.981
101.981 101.994 101.997 102.002 102.003 102.040 102.044 102.045
102.051 102.071 102.075 115.180 115.209 115.249 115.400 115.836
115.838 123.914 124.101 124.806 196.482 196.520 196.522 196.554
196.614 196.614 196.635 196.640 196.800 196.864 214.183 214.263
326.121 392.450 392.475 392.503 392.629 392.983 392.986 891.055
891.131
 --------------------------------------------------------------
 
          Ground-State Mulliken Net Atomic Charges

     Atom                 Charge (a.u.)
  ----------------------------------------
      1 P                     1.263679
      2 O                    -0.631839
      3 O                    -0.631839
  ----------------------------------------
  Sum of atomic charges =    -0.000000

 -----------------------------------------------------------------
                    Cartesian Multipole Moments
 -----------------------------------------------------------------
    Charge (ESU x 10^10)
                -0.0000
    Dipole Moment (Debye)
         X      -0.0000      Y      -0.0000      Z       1.4523
       Tot       1.4523
    Quadrupole Moments (Debye-Ang)
        XX     -20.9381     XY       0.0000     YY     -28.8397
        XZ      -0.0000     YZ       0.0000     ZZ     -21.9158
    Octopole Moments (Debye-Ang^2)
       XXX      -0.0000    XXY       0.0000    XYY      -0.0000
       YYY      -0.0000    XXZ      -0.0630    XYZ       0.0000
       YYZ       0.8067    XZZ      -0.0000    YZZ      -0.0000
       ZZZ      -1.1221
    Hexadecapole Moments (Debye-Ang^3)
      XXXX     -21.6461   XXXY       0.0000   XXYY     -28.8009
      XYYY       0.0000   YYYY    -159.4918   XXXZ      -0.0000
      XXYZ       0.0000   XYYZ       0.0000   YYYZ       0.0000
      XXZZ      -9.3596   XYZZ       0.0000   YYZZ     -30.6935
      XZZZ      -0.0000   YZZZ      -0.0000   ZZZZ     -35.2810
 -----------------------------------------------------------------
Archival summary:
1\1\n0031.mhg0\SP\ROProcedureUnspecified\BasisUnspecified\12(2)\yhljason\SunNov1501:09:502020SunNov1501:09:502020\0\\#,ROProcedureUnspecified,BasisUnspecified,\\0,2\P\O,1,1.46652\O,1,1.46652,2,135.289\\\@

 Total job time:  3219.71s(wall), 25433.09s(cpu) 
 Sun Nov 15 01:09:50 2020

        *************************************************************
        *                                                           *
        *  Thank you very much for using Q-Chem.  Have a nice day.  *
        *                                                           *
        *************************************************************


 
User input: 5 of 7 
 
Q-Chem Developer Version!
                  Welcome to Q-Chem
     A Quantum Leap Into The Future Of Chemistry


 Q-Chem 5.1, Q-Chem, Inc., Pleasanton, CA (2018)

[...]
        *************************************************************


 
User input: 7 of 7 
 
Q-Chem Developer Version!
                  Welcome to Q-Chem
     A Quantum Leap Into The Future Of Chemistry


 Q-Chem 5.1, Q-Chem, Inc., Pleasanton, CA (2018)

 Yihan Shao,  Zhengting Gan,  E. Epifanovsky,  A. T. B. Gilbert,  M. Wormit,  
 J. Kussmann,  A. W. Lange,  A. Behn,  Jia Deng,  Xintian Feng,  D. Ghosh,  
 M. Goldey,  P. R. Horn,  L. D. Jacobson,  I. Kaliman,  T. Kus,  A. Landau,  
 Jie Liu,  E. I. Proynov,  R. M. Richard,  R. P. Steele,  E. J. Sundstrom,  
 H. L. Woodcock III,  P. M. Zimmerman,  D. Zuev,  B. Albrecht,  E. Alguire,  
 S. A. Baeppler,  D. Barton,  Z. Benda,  Y. A. Bernard,  E. J. Berquist,  
 K. B. Bravaya,  H. Burton,  D. Casanova,  Chun-Min Chang,  Yunqing Chen,  
 A. Chien,  K. D. Closser,  M. P. Coons,  S. Coriani,  S. Dasgupta,  
 A. L. Dempwolff,  M. Diedenhofen,  Hainam Do,  R. G. Edgar,  Po-Tung Fang,  
 S. Faraji,  S. Fatehi,  Qingguo Feng,  K. D. Fenk,  J. Fosso-Tande,  
 Qinghui Ge,  A. Ghysels,  G. Gidofalvi,  J. Gomes,  J. Gonthier,  A. Gunina,  
 D. Hait,  M. W. D. Hanson-Heine,  P. H. P. Harbach,  A. W. Hauser,  
 J. E. Herr,  E. G. Hohenstein,  Z. C. Holden,  Kerwin Hui,  B. C. Huynh,  
 T.-C. Jagau,  Hyunjun Ji,  B. Kaduk,  K. Khistyaev,  Jaehoon Kim,  
 P. Klunzinger,  K. Koh,  D. Kosenkov,  L. Koulias,  T. Kowalczyk,  
 C. M. Krauter,  A. Kunitsa,  Ka Un Lao,  A. Laurent,  K. V. Lawler,  
 Joonho Lee,  D. Lefrancois,  S. Lehtola,  D. S. Levine,  Yi-Pei Li,  
 You-Sheng Lin,  Fenglai Liu,  E. Livshits,  A. Luenser,  P. Manohar,  
 E. Mansoor,  S. F. Manzer,  Shan-Ping Mao,  Yuezhi Mao,  N. Mardirossian,  
 A. V. Marenich,  T. Markovich,  L. A. Martinez-Martinez,  S. A. Maurer,  
 N. J. Mayhall,  S. C. McKenzie,  J.-M. Mewes,  A. F. Morrison,  
 J. W. Mullinax,  K. Nanda,  T. S. Nguyen-Beck,  R. Olivares-Amaya,  
 J. A. Parkhill,  T. M. Perrine,  F. Plasser,  P. Pokhilko,  S. Prager,  
 A. Prociuk,  E. Ramos,  D. R. Rehn,  F. Rob,  M. Schneider,  N. Sergueev,  
 S. M. Sharada,  S. Sharma,  D. W. Small,  T. Stauch,  T. Stein,  
 Yu-Chuan Su,  A. J. W. Thom,  A. Tkatchenko,  T. Tsuchimochi,  N. M. Tubman,  
 L. Vogt,  M. L. Vidal,  O. Vydrov,  M. A. Watson,  J. Wenzel,  
 M. de Wergifosse,  T. A. Wesolowski,  A. White,  J. Witte,  A. Yamada,  
 Jun Yang,  K. Yao,  S. Yeganeh,  S. R. Yost,  Zhi-Qiang You,  A. Zech,  
 Igor Ying Zhang,  Xing Zhang,  Yan Zhao,  Ying Zhu,  B. R. Brooks,  
 G. K. L. Chan,  C. J. Cramer,  M. S. Gordon,  W. J. Hehre,  A. Klamt,  
 M. W. Schmidt,  C. D. Sherrill,  D. G. Truhlar,  A. Aspuru-Guzik,  R. Baer,  
 A. T. Bell,  N. A. Besley,  Jeng-Da Chai,  A. E. DePrince, III,  
 R. A. DiStasio Jr.,  A. Dreuw,  B. D. Dunietz,  T. R. Furlani,  
 Chao-Ping Hsu,  Yousung Jung,  Jing Kong,  D. S. Lambrecht,  WanZhen Liang,  
 C. Ochsenfeld,  V. A. Rassolov,  L. V. Slipchenko,  J. E. Subotnik,  
 T. Van Voorhis,  J. M. Herbert,  A. I. Krylov,  P. M. W. Gill,  M. Head-Gordon

 Contributors to earlier versions of Q-Chem not listed above: 
 R. D. Adamson,  B. Austin,  J. Baker,  G. J. O. Beran,  K. Brandhorst,  
 S. T. Brown,  E. F. C. Byrd,  A. K. Chakraborty,  C.-L. Cheng,  
 Siu Hung Chien,  D. M. Chipman,  D. L. Crittenden,  H. Dachsel,  
 R. J. Doerksen,  A. D. Dutoi,  L. Fusti-Molnar,  W. A. Goddard III,  
 A. Golubeva-Zadorozhnaya,  S. R. Gwaltney,  G. Hawkins,  A. Heyden,  
 S. Hirata,  G. Kedziora,  F. J. Keil,  C. Kelley,  Jihan Kim,  R. A. King,  
 R. Z. Khaliullin,  P. P. Korambath,  W. Kurlancheek,  A. M. Lee,  M. S. Lee,  
 S. V. Levchenko,  Ching Yeh Lin,  D. Liotard,  R. C. Lochan,  I. Lotan,  
 P. E. Maslen,  N. Nair,  D. P. O'Neill,  D. Neuhauser,  E. Neuscamman,  
 C. M. Oana,  R. Olson,  B. Peters,  R. Peverati,  P. A. Pieniazek,  
 Y. M. Rhee,  J. Ritchie,  M. A. Rohrdanz,  E. Rosta,  N. J. Russ,  
 H. F. Schaefer III,  N. E. Schultz,  N. Shenvi,  A. C. Simmonett,  A. Sodt,  
 D. Stuck,  K. S. Thanthiriwatte,  V. Vanovschi,  Tao Wang,  A. Warshel,  
 C. F. Williams,  Q. Wu,  X. Xu,  W. Zhang

 Please cite Q-Chem as follows:
 Y. Shao et al., Mol. Phys. 113, 184-215 (2015)
 DOI: 10.1080/00268976.2014.952696

 Q-Chem 5.1.1 for Intel X86 EM64T Linux

 Parts of Q-Chem use Armadillo 8.300.2 (Tropical Shenanigans).
 http://arma.sourceforge.net/

 Q-Chem begins on Sun Nov 15 02:57:53 2020  

Host: n0031.mhg0
0

     Scratch files written to /local/scratch/users/yhljason/PO2_XYG3_aug-cc-pcVQZ.inp20201114211623//
The previous job contains 0 fragments, simply inherited here
Input Ideriv = 1
Curr. Ideriv = -1
Max.  Ideriv = 1

Checking the input file for inconsistencies... 	...done.

--------------------------------------------------------------
User input:
--------------------------------------------------------------
$molecule
read
$end

$rem
jobtype sp
exchange XYG3
xc_grid 000099000590
basis aug-cc-pcVQZ

max_scf_cycles 200
thresh 14
scf_convergence 8
mem_total 128000
cc_memory 96000
cc_backend xm
mem_static 1500
symmetry false
sym_ignore true
scf_guess read
unrestricted false
scf_algorithm gdm
n_frozen_core 0
$end



$multipole_field
ZZ -0.0001
$end

--------------------------------------------------------------
 ----------------------------------------------------------------
             Standard Nuclear Orientation (Angstroms)
    I     Atom           X                Y                Z
 ----------------------------------------------------------------
    1      P       0.0000000000     0.0000000000     0.2879000000
    2      O       0.0000000000     1.3563000000    -0.2699000000
    3      O       0.0000000000    -1.3563000000    -0.2699000000
 ----------------------------------------------------------------
 Nuclear Repulsion Energy =    99.0862965144 hartrees
 There are       16 alpha and       15 beta electrons
 Requested basis set is aug-cc-pCVQZ
 There are 92 shells and 352 basis functions

 Total QAlloc Memory Limit 128000 MB
 Mega-Array Size      1467 MB
 MEM_STATIC part      1500 MB

                       Distance Matrix (Angstroms)
             P (  1)   O (  2)
   O (  2)  1.466523
   O (  3)  1.466523  2.712600
 
 Applying Cartesian multipole field
    Component          Value
    ---------          -----
     (0,0,2)       -1.00000E-04
 Nucleus-field energy     =    -0.0008602096 hartrees
 A cutoff of  1.0D-14 yielded   3907 shell pairs
 There are     58315 function pairs (     96993 Cartesian)
 
 -------------------------------------------------------
 OpenMP Integral Computing Module                       
 Release: version 1.0, May 2013, Q-Chem Inc. Pittsburgh 
 -------------------------------------------------------
 Integral Job Info:
 Integral job number is                      11
 Integral operator is                         1
 short-range coefficients                     0
 long-range coefficients              100000000
 Omega coefficients                           0
 if combine SR and LR in K                    0
 Integral screening is                        0
 Integral computing path is                   2
 max size of driver memory is           3200000
 size of driver memory is               1704330
 size of scratch memory is             29435624
 max col of scratch BK array              50625
 max len of scratch array in speh3         2114
 max len of scratch index in speh4           50
 max int batch size is                      520
 min int batch size is                       52
 fixed nKL is                                22
 max L of basis functions is                  4
 order of int derivative is                   0
 number of shells is                         92
 number of basis is                         452
 number of cartesian basis is               452
 number of contracted shell pairs          3907
 number of primitive shell pairs          12168
 maxK2 (contraction) of shell pair          169
 max number of K2 of shell pair               1
 max number of CS2 of shell pair            407
 max number of PS2 of shell pair           1014
 mem total for path MDJ                  866296
 -------------------------------------------------------
 Smallest overlap matrix eigenvalue = 2.92E-05
 Guess MOs from SCF MO coefficient file
 Reading MOs from coefficient file
 Reading MOs from coefficient file
 A restricted hybrid HF-DFT SCF calculation will be
 performed using Geometric Direct Minimization
 Exchange:     0.2000 Hartree-Fock + 0.0800 Slater + 0.7200 B88
 Correlation:  0.1900 VWN1RPA + 0.8100 LYP
 Using Euler-Maclaurin-Lebedev (99,590) quadrature formula
 SCF converges when RMS gradient is below 1.0E-08
Using Q-Chem read-in guess as SCF_GUESS READ specified.

 using 8 threads for integral computing
 -------------------------------------------------------
 OpenMP Integral computing Module                
 Release: version 2.0, May 2017, Q-Chem Inc. Pleasanton 
 -------------------------------------------------------
TIMEINFO->: J/JK contribution 432.09 sec.
 -------------------------------------------------------
 OpenMP BLAS3 based DFT computing Module                
 Release: version 1.0, May 2013, Q-Chem Inc. Pittsburgh 
 -------------------------------------------------------
 ---------------------------------------
  Cycle       Energy        RMS Gradient
 ---------------------------------------
    1    -491.9130834648      1.48E-03 Normal BFGS step
TIMEINFO->: J/JK contribution 440.39 sec.
    2    -491.9130852785      9.90E-04 Normal BFGS step
TIMEINFO->: J/JK contribution 414.88 sec.
    3    -491.9130860995      8.26E-04 Normal BFGS step
TIMEINFO->: J/JK contribution 419.17 sec.
    4    -491.9130864181      5.29E-04 Normal BFGS step
TIMEINFO->: J/JK contribution 418.26 sec.
    5    -491.9130866680      5.01E-05 Normal BFGS step
TIMEINFO->: J/JK contribution 404.71 sec.
    6    -491.9130866759      1.83E-05 Normal BFGS step
TIMEINFO->: J/JK contribution 396.37 sec.
    7    -491.9130866770      4.80E-06 Normal BFGS step
TIMEINFO->: J/JK contribution 387.99 sec.
    8    -491.9130866770      2.10E-06 Normal BFGS step
TIMEINFO->: J/JK contribution 383.08 sec.
    9    -491.9130866770      5.25E-07 Normal BFGS step
TIMEINFO->: J/JK contribution 377.69 sec.
   GDM::WARNING energy changes are now smaller than effective accuracy.
   GDM::        calculation will continue, but THRESH should be increased
   GDM::        or SCF_CONVERGENCE decreased.
   GDM::        effective_thresh =   1.094835083703671E-009
   10    -491.9130866770      4.73E-07 Normal BFGS step
TIMEINFO->: J/JK contribution 368.57 sec.
   11    -491.9130866770      8.00E-07 Normal BFGS step
TIMEINFO->: J/JK contribution 361.10 sec.
   GDM::WARNING energy changes are now smaller than effective accuracy.
   GDM::        calculation will continue, but THRESH should be increased
   GDM::        or SCF_CONVERGENCE decreased.
   GDM::        effective_thresh =   1.094835083703671E-009
   12    -491.9130866770      7.12E-08 Normal BFGS step
TIMEINFO->: J/JK contribution 358.87 sec.
   13    -491.9130866770      3.61E-08 Normal BFGS step
TIMEINFO->: J/JK contribution 335.89 sec.
   14    -491.9130866770      4.87E-09 Convergence criterion met
 ---------------------------------------
 B3LYP orbitals are now ready for the XYG3 calculation.
 XYG3 energy = Exch (0.8033 HF  - 0.0140 Slater + 0.2107 Becke88) + 
               Corr (0.6789 LYP + 0.3211 MP2)
 SCF time:  CPU 5826.98 s  wall 737.41 s
 SCF   energy in the final basis set = -491.40588155
 Total energy in the final basis set = -491.40588155
 
 Components of the MP2 correlation energy:
        aaaa  correlation energy  =        -0.1966096596 au
        abab  correlation energy  =        -1.1504059239 au
        bbbb  correlation energy  =        -0.2040514685 au
        singles contribution not yet available for XYG3

 Total  XYG3        total energy  =      -491.9043437883 au

 
 --------------------------------------------------------------
 
                    Orbital Energies (a.u.)
 --------------------------------------------------------------
 
 Alpha MOs
 -- Occupied --
-77.179 -19.188 -19.188  -6.664  -4.828  -4.826  -4.822  -1.085
 -1.038  -0.574  -0.476  -0.454  -0.459  -0.385  -0.382  -0.318
 -- Virtual --
 -0.100  -0.015   0.014   0.022   0.030   0.051   0.086   0.095
  0.096   0.102   0.112   0.115   0.135   0.139   0.150   0.175
  0.189   0.212   0.213   0.228   0.248   0.276   0.297   0.311
  0.324   0.329   0.343   0.355   0.372   0.408   0.421   0.427
  0.430   0.458   0.465   0.490   0.507   0.516   0.534   0.542
  0.551   0.618   0.622   0.624   0.648   0.648   0.771   0.801
  0.802   0.831   0.846   0.889   0.895   0.924   0.943   0.974
  0.979   0.984   1.002   1.034   1.037   1.055   1.062   1.073
  1.073   1.156   1.162   1.161   1.199   1.208   1.260   1.271
  1.280   1.314   1.372   1.376   1.431   1.454   1.472   1.471
  1.483   1.483   1.492   1.529   1.548   1.642   1.721   1.723
  1.768   1.775   1.790   1.888   1.892   1.919   1.931   2.015
  2.038   2.042   2.097   2.155   2.162   2.267   2.290   2.405
  2.518   2.571   2.632   2.649   2.668   2.747   2.759   2.792
  2.822   2.824   2.905   2.914   2.928   2.942   2.948   2.984
  3.039   3.044   3.277   3.353   3.353   3.385   3.408   3.418
  3.426   3.468   3.475   3.618   3.622   3.696   3.703   3.720
  3.796   3.813   3.824   3.838   3.880   3.915   3.919   3.945
  3.958   3.961   3.979   4.030   4.086   4.167   4.176   4.184
  4.213   4.293   4.330   4.339   4.367   4.424   4.449   4.456
  4.528   4.616   4.649   4.662   4.795   4.819   5.075   5.077
  5.126   5.195   5.242   5.375   5.645   5.725   5.822   5.989
  6.832   7.360   8.192   8.221   8.497   9.147   9.342   9.375
  9.411   9.480   9.687  10.117  10.117  10.129  10.132  10.193
 10.200  10.214  10.228  10.292  10.309  10.369  10.392  10.394
 10.438  10.442  10.461  10.480  10.511  10.547  10.723  11.313
 11.316  11.333  11.334  11.465  11.499  11.538  11.572  11.904
 11.978  12.004  12.045  12.191  12.239  12.289  12.323  12.397
 12.412  12.584  12.614  12.674  12.726  13.102  13.165  13.791
 14.053  14.868  15.615  15.622  15.886  15.941  16.115  16.382
 16.549  17.249  17.401  23.297  26.437  26.452  26.655  27.287
 27.673  32.688  32.720  32.770  32.956  33.489  33.491  39.279
 39.512  40.384  45.888  45.888  45.893  45.894  45.899  45.901
 45.903  45.911  45.919  46.061  46.131  46.133  46.191  46.302
 46.303  46.334  46.356  46.645  46.756  55.978  55.981  56.112
 56.112  56.202  56.333  56.335  62.804  62.924  68.022  78.873
 78.883  79.029  79.484  79.710 101.975 101.975 101.976 101.977
101.988 101.992 101.995 101.999 102.034 102.037 102.037 102.040
102.060 102.066 115.179 115.208 115.244 115.396 115.829 115.832
123.914 124.098 124.805 196.481 196.518 196.521 196.552 196.612
196.613 196.631 196.637 196.797 196.860 214.181 214.261 326.120
392.451 392.475 392.502 392.628 392.981 392.984 891.055 891.131
 
 Beta MOs
 -- Occupied --
-77.176 -19.182 -19.182  -6.661  -4.825  -4.820  -4.819  -1.068
 -1.020  -0.548  -0.448  -0.446  -0.440  -0.379  -0.368
 -- Virtual --
 -0.205  -0.078  -0.006   0.017   0.023   0.032   0.057   0.090
  0.095   0.099   0.102   0.114   0.122   0.138   0.140   0.150
  0.179   0.189   0.212   0.216   0.240   0.253   0.284   0.306
  0.315   0.329   0.333   0.345   0.357   0.374   0.408   0.422
  0.429   0.435   0.466   0.466   0.493   0.510   0.519   0.536
  0.548   0.553   0.625   0.625   0.626   0.649   0.650   0.777
  0.803   0.805   0.838   0.863   0.905   0.909   0.926   0.944
  0.977   0.997   1.001   1.011   1.045   1.046   1.065   1.069
  1.076   1.076   1.162   1.169   1.172   1.202   1.213   1.271
  1.283   1.288   1.319   1.378   1.382   1.436   1.461   1.476
  1.478   1.484   1.486   1.498   1.534   1.552   1.647   1.728
  1.730   1.776   1.781   1.802   1.897   1.895   1.924   1.937
  2.020   2.049   2.048   2.103   2.157   2.171   2.280   2.295
  2.409   2.529   2.586   2.658   2.674   2.675   2.755   2.769
  2.800   2.836   2.834   2.913   2.921   2.935   2.969   2.974
  2.998   3.052   3.059   3.286   3.358   3.359   3.387   3.417
  3.423   3.431   3.475   3.479   3.626   3.631   3.705   3.712
  3.727   3.803   3.818   3.829   3.844   3.887   3.922   3.926
  3.950   3.966   3.964   3.985   4.037   4.095   4.179   4.182
  4.192   4.222   4.301   4.334   4.347   4.379   4.441   4.454
  4.473   4.533   4.629   4.662   4.675   4.807   4.830   5.085
  5.083   5.130   5.204   5.252   5.389   5.651   5.737   5.835
  6.002   6.840   7.372   8.203   8.232   8.500   9.156   9.349
  9.379   9.415   9.492   9.700  10.120  10.122  10.137  10.139
 10.205  10.214  10.224  10.239  10.303  10.319  10.379  10.402
 10.408  10.451  10.455  10.477  10.494  10.517  10.558  10.738
 11.323  11.324  11.342  11.342  11.479  11.511  11.553  11.583
 11.917  11.993  12.023  12.067  12.201  12.259  12.305  12.336
 12.409  12.424  12.597  12.625  12.692  12.747  13.122  13.187
 13.797  14.063  14.871  15.617  15.624  15.888  15.943  16.116
 16.387  16.554  17.259  17.410  23.301  26.443  26.458  26.657
 27.292  27.677  32.693  32.724  32.782  32.967  33.505  33.506
 39.282  39.518  40.387  45.889  45.889  45.894  45.895  45.901
 45.903  45.905  45.913  45.921  46.067  46.138  46.140  46.199
 46.310  46.310  46.346  46.369  46.657  46.771  55.982  55.985
 56.115  56.115  56.205  56.337  56.338  62.812  62.933  68.025
 78.877  78.887  79.030  79.488  79.712 101.981 101.981 101.982
101.982 101.995 101.998 102.003 102.004 102.041 102.045 102.046
102.052 102.072 102.076 115.181 115.210 115.250 115.402 115.837
115.839 123.915 124.103 124.807 196.483 196.521 196.523 196.555
196.615 196.615 196.636 196.641 196.801 196.865 214.184 214.265
326.122 392.451 392.476 392.504 392.630 392.984 392.987 891.056
891.132
 --------------------------------------------------------------
 
          Ground-State Mulliken Net Atomic Charges

     Atom                 Charge (a.u.)
  ----------------------------------------
      1 P                     1.260845
      2 O                    -0.630422
      3 O                    -0.630422
  ----------------------------------------
  Sum of atomic charges =    -0.000000

 -----------------------------------------------------------------
                    Cartesian Multipole Moments
 -----------------------------------------------------------------
    Charge (ESU x 10^10)
                -0.0000
    Dipole Moment (Debye)
         X      -0.0000      Y       0.0000      Z       1.4513
       Tot       1.4513
    Quadrupole Moments (Debye-Ang)
        XX     -20.9386     XY       0.0000     YY     -28.7838
        XZ      -0.0000     YZ      -0.0000     ZZ     -21.8967
    Octopole Moments (Debye-Ang^2)
       XXX      -0.0000    XXY      -0.0000    XYY       0.0000
       YYY       0.0000    XXZ      -0.0638    XYZ      -0.0000
       YYZ       0.7939    XZZ      -0.0000    YZZ       0.0000
       ZZZ      -1.1108
    Hexadecapole Moments (Debye-Ang^3)
      XXXX     -21.6430   XXXY       0.0000   XXYY     -28.7628
      XYYY       0.0000   YYYY    -159.1045   XXXZ      -0.0000
      XXYZ      -0.0000   XYYZ      -0.0000   YYYZ      -0.0000
      XXZZ      -9.3449   XYZZ       0.0000   YYZZ     -30.6305
      XZZZ      -0.0000   YZZZ       0.0000   ZZZZ     -35.1787
 -----------------------------------------------------------------
Archival summary:
1\1\n0031.mhg0\SP\ROProcedureUnspecified\BasisUnspecified\12(2)\yhljason\SunNov1503:51:312020SunNov1503:51:312020\0\\#,ROProcedureUnspecified,BasisUnspecified,\\0,2\P\O,1,1.46652\O,1,1.46652,2,135.289\\\@

 Total job time:  3218.11s(wall), 25420.13s(cpu) 
 Sun Nov 15 03:51:31 2020

        *************************************************************
        *                                                           *
        *  Thank you very much for using Q-Chem.  Have a nice day.  *
        *                                                           *
        *************************************************************


