Q-Chem Developer Version!
                  Welcome to Q-Chem
     A Quantum Leap Into The Future Of Chemistry


 Q-Chem 5.1, Q-Chem, Inc., Pleasanton, CA (2018)

 Yihan Shao,  Zhengting Gan,  E. Epifanovsky,  A. T. B. Gilbert,  M. Wormit,  
 J. Kussmann,  A. W. Lange,  A. Behn,  Jia Deng,  Xintian Feng,  D. Ghosh,  
 M. Goldey,  P. R. Horn,  L. D. Jacobson,  I. Kaliman,  T. Kus,  A. Landau,  
 Jie Liu,  E. I. Proynov,  R. M. Richard,  R. P. Steele,  E. J. Sundstrom,  
 H. L. Woodcock III,  P. M. Zimmerman,  D. Zuev,  B. Albrecht,  E. Alguire,  
 S. A. Baeppler,  D. Barton,  Z. Benda,  Y. A. Bernard,  E. J. Berquist,  
 K. B. Bravaya,  H. Burton,  D. Casanova,  Chun-Min Chang,  Yunqing Chen,  
 A. Chien,  K. D. Closser,  M. P. Coons,  S. Coriani,  S. Dasgupta,  
 A. L. Dempwolff,  M. Diedenhofen,  Hainam Do,  R. G. Edgar,  Po-Tung Fang,  
 S. Faraji,  S. Fatehi,  Qingguo Feng,  K. D. Fenk,  J. Fosso-Tande,  
 Qinghui Ge,  A. Ghysels,  G. Gidofalvi,  J. Gomes,  J. Gonthier,  A. Gunina,  
 D. Hait,  M. W. D. Hanson-Heine,  P. H. P. Harbach,  A. W. Hauser,  
 J. E. Herr,  E. G. Hohenstein,  Z. C. Holden,  Kerwin Hui,  B. C. Huynh,  
 T.-C. Jagau,  Hyunjun Ji,  B. Kaduk,  K. Khistyaev,  Jaehoon Kim,  
 P. Klunzinger,  K. Koh,  D. Kosenkov,  L. Koulias,  T. Kowalczyk,  
 C. M. Krauter,  A. Kunitsa,  Ka Un Lao,  A. Laurent,  K. V. Lawler,  
 Joonho Lee,  D. Lefrancois,  S. Lehtola,  D. S. Levine,  Yi-Pei Li,  
 You-Sheng Lin,  Fenglai Liu,  E. Livshits,  A. Luenser,  P. Manohar,  
 E. Mansoor,  S. F. Manzer,  Shan-Ping Mao,  Yuezhi Mao,  N. Mardirossian,  
 A. V. Marenich,  T. Markovich,  L. A. Martinez-Martinez,  S. A. Maurer,  
 N. J. Mayhall,  S. C. McKenzie,  J.-M. Mewes,  A. F. Morrison,  
 J. W. Mullinax,  K. Nanda,  T. S. Nguyen-Beck,  R. Olivares-Amaya,  
 J. A. Parkhill,  T. M. Perrine,  F. Plasser,  P. Pokhilko,  S. Prager,  
 A. Prociuk,  E. Ramos,  D. R. Rehn,  F. Rob,  M. Schneider,  N. Sergueev,  
 S. M. Sharada,  S. Sharma,  D. W. Small,  T. Stauch,  T. Stein,  
 Yu-Chuan Su,  A. J. W. Thom,  A. Tkatchenko,  T. Tsuchimochi,  N. M. Tubman,  
 L. Vogt,  M. L. Vidal,  O. Vydrov,  M. A. Watson,  J. Wenzel,  
 M. de Wergifosse,  T. A. Wesolowski,  A. White,  J. Witte,  A. Yamada,  
 Jun Yang,  K. Yao,  S. Yeganeh,  S. R. Yost,  Zhi-Qiang You,  A. Zech,  
 Igor Ying Zhang,  Xing Zhang,  Yan Zhao,  Ying Zhu,  B. R. Brooks,  
 G. K. L. Chan,  C. J. Cramer,  M. S. Gordon,  W. J. Hehre,  A. Klamt,  
 M. W. Schmidt,  C. D. Sherrill,  D. G. Truhlar,  A. Aspuru-Guzik,  R. Baer,  
 A. T. Bell,  N. A. Besley,  Jeng-Da Chai,  A. E. DePrince, III,  
 R. A. DiStasio Jr.,  A. Dreuw,  B. D. Dunietz,  T. R. Furlani,  
 Chao-Ping Hsu,  Yousung Jung,  Jing Kong,  D. S. Lambrecht,  WanZhen Liang,  
 C. Ochsenfeld,  V. A. Rassolov,  L. V. Slipchenko,  J. E. Subotnik,  
 T. Van Voorhis,  J. M. Herbert,  A. I. Krylov,  P. M. W. Gill,  M. Head-Gordon

 Contributors to earlier versions of Q-Chem not listed above: 
 R. D. Adamson,  B. Austin,  J. Baker,  G. J. O. Beran,  K. Brandhorst,  
 S. T. Brown,  E. F. C. Byrd,  A. K. Chakraborty,  C.-L. Cheng,  
 Siu Hung Chien,  D. M. Chipman,  D. L. Crittenden,  H. Dachsel,  
 R. J. Doerksen,  A. D. Dutoi,  L. Fusti-Molnar,  W. A. Goddard III,  
 A. Golubeva-Zadorozhnaya,  S. R. Gwaltney,  G. Hawkins,  A. Heyden,  
 S. Hirata,  G. Kedziora,  F. J. Keil,  C. Kelley,  Jihan Kim,  R. A. King,  
 R. Z. Khaliullin,  P. P. Korambath,  W. Kurlancheek,  A. M. Lee,  M. S. Lee,  
 S. V. Levchenko,  Ching Yeh Lin,  D. Liotard,  R. C. Lochan,  I. Lotan,  
 P. E. Maslen,  N. Nair,  D. P. O'Neill,  D. Neuhauser,  E. Neuscamman,  
 C. M. Oana,  R. Olson,  B. Peters,  R. Peverati,  P. A. Pieniazek,  
 Y. M. Rhee,  J. Ritchie,  M. A. Rohrdanz,  E. Rosta,  N. J. Russ,  
 H. F. Schaefer III,  N. E. Schultz,  N. Shenvi,  A. C. Simmonett,  A. Sodt,  
 D. Stuck,  K. S. Thanthiriwatte,  V. Vanovschi,  Tao Wang,  A. Warshel,  
 C. F. Williams,  Q. Wu,  X. Xu,  W. Zhang

 Please cite Q-Chem as follows:
 Y. Shao et al., Mol. Phys. 113, 184-215 (2015)
 DOI: 10.1080/00268976.2014.952696

 Q-Chem 5.1.1 for Intel X86 EM64T Linux

 Parts of Q-Chem use Armadillo 8.300.2 (Tropical Shenanigans).
 http://arma.sourceforge.net/

 Q-Chem begins on Sat Nov 14 21:16:21 2020  

Host: n0101.mhg0
0

     Scratch files written to /local/scratch/users/yhljason/PO2_DSD-PBEPBE-D3_aug-cc-pcVTZ.inp20201114211618//
Input Ideriv = 0
Curr. Ideriv = -1
Max.  Ideriv = 0
Input Ideriv = 1
Curr. Ideriv = 0
Max.  Ideriv = 0

Checking the input file for inconsistencies... 	...done.

--------------------------------------------------------------
User input:
--------------------------------------------------------------
$molecule
0 2
P1	0.0000	0.0000	0.2879
O2	0.0000	1.3563	-0.2699
O3	0.0000	-1.3563	-0.2699
$end

$rem
jobtype sp
exchange DSD-PBEPBE-D3
xc_grid 000099000590
basis aug-cc-pcVTZ

max_scf_cycles 200
thresh 14
scf_convergence 8
scf_algorithm gdm
symmetry false
sym_ignore true
unrestricted false
gen_scfman true
internal_stability_iter 15
internal_stability_davidson_iter 200
mem_total 128000
cc_memory 96000
cc_backend xm
mem_static 1500
n_frozen_core 0
$end



--------------------------------------------------------------
 Adding empirical dispersion correction 
 ----------------------------------------------------------------
 Doing -D3(BJ) with
 s6 =   0.78000
 s8 =   0.00000
 a1 =   0.00000
 a2 =   6.10000
 -D3 energy without 3body term =     -0.0014651537 hartrees
 ----------------------------------------------------------------
             Standard Nuclear Orientation (Angstroms)
    I     Atom           X                Y                Z
 ----------------------------------------------------------------
    1      P       0.0000000000     0.0000000000     0.2879000000
    2      O       0.0000000000     1.3563000000    -0.2699000000
    3      O       0.0000000000    -1.3563000000    -0.2699000000
 ----------------------------------------------------------------
 Nuclear Repulsion Energy =    99.0848313607 hartrees
 There are       16 alpha and       15 beta electrons
 Requested basis set is aug-cc-pCVTZ
 There are 61 shells and 193 basis functions

 Total QAlloc Memory Limit 128000 MB
 Mega-Array Size      1467 MB
 MEM_STATIC part      1500 MB

                       Distance Matrix (Angstroms)
             P (  1)   O (  2)
   O (  2)  1.466523
   O (  3)  1.466523  2.712600
 
 A cutoff of  1.0D-14 yielded   1808 shell pairs
 There are     18384 function pairs (     25621 Cartesian)
 
 -------------------------------------------------------
 OpenMP Integral Computing Module                       
 Release: version 1.0, May 2013, Q-Chem Inc. Pittsburgh 
 -------------------------------------------------------
 Integral Job Info:
 Integral job number is                      11
 Integral operator is                         1
 short-range coefficients                     0
 long-range coefficients              100000000
 Omega coefficients                           0
 if combine SR and LR in K                    0
 Integral screening is                        0
 Integral computing path is                   2
 max size of driver memory is            800000
 size of driver memory is                776718
 size of scratch memory is             29531563
 max col of scratch BK array              10000
 max len of scratch array in speh3          662
 max len of scratch index in speh4           32
 max int batch size is                      520
 min int batch size is                       52
 fixed nKL is                                31
 max L of basis functions is                  3
 order of int derivative is                   0
 number of shells is                         61
 number of basis is                         227
 number of cartesian basis is               227
 number of contracted shell pairs          1808
 number of primitive shell pairs           8014
 maxK2 (contraction) of shell pair          169
 max number of K2 of shell pair               1
 max number of CS2 of shell pair            217
 max number of PS2 of shell pair           1014
 mem total for path MDJ                  607252
 -------------------------------------------------------
 Smallest overlap matrix eigenvalue = 2.46E-04

 Scale SEOQF with 1.000000e-01/1.000000e-01/1.000000e-01

 Standard Electronic Orientation quadrupole field applied
 Nucleus-field energy     =     0.0000000018 hartrees
 Guess from superposition of atomic densities
 Warning:  Energy on first SCF cycle will be non-variational
 SAD guess density has 31.000000 electrons

 -----------------------------------------------------------------------
  General SCF calculation program by
  Eric Jon Sundstrom, Paul Horn, Yuezhi Mao, Dmitri Zuev, Alec White,
  David Stuck, Shaama M.S., Shane Yost, Joonho Lee, David Small,
  Daniel Levine, Susi Lehtola, Hugh Burton, Evgeny Epifanovsky
 -----------------------------------------------------------------------
 Exchange:     0.6800 Hartree-Fock + 0.3200 PBE
 Correlation:  0.4900 PBE
 Using Euler-Maclaurin-Lebedev (99,590) quadrature formula
 Dispersion:   Grimme D3
Running Object-Oriented ROKS (ROHF)
ROHF occupied orbitals are orthonormal
ROHF occupied orbitals are orthogonal to virtual orbitals
ROHF virtual orbitals are orthonormal
We will preform up to 15 macro iterations over saddle points until a stable solution is found
Energy prior to optimization (guess energy) = -490.278651990622
Begin Timing: Total SCF Calculation
Begin Timing: SCF Single Stationary Point Calculation
begin iterations for algorithm: GDM          
the SCF tolerance is set to 1.00e-08
    1    -490.2786519906      3.56e-01     00000  Descent step
    2    -490.6640175479      2.19e-01     00000  Descent step
    3    -490.8998783284      1.41e-01     00000  Descent step
    4    -491.0200647433      5.29e-02     00000  Normal BFGS step
    5    -491.0467922494      3.07e-02     00000  Normal BFGS step
    6    -491.0474687962      1.05e-02     00000  Normal BFGS step
    7    -491.0477476121      2.95e-03     00000  Normal BFGS step
    8    -491.0477699712      1.70e-03     00000  Normal BFGS step
    9    -491.0477740033      2.58e-04     00000  Normal BFGS step
   10    -491.0477743349      5.43e-05     00000  Normal BFGS step
   11    -491.0477743563      1.99e-05     00000  Normal BFGS step
   12    -491.0477743574      4.53e-06     00000  Normal BFGS step
   13    -491.0477743576      1.26e-06     00000  Normal BFGS step
   14    -491.0477743576      2.24e-07     00000  Normal BFGS step
   15    -491.0477743576      4.10e-08     00000  Normal BFGS step
   16    -491.0477743576      3.22e-08     00000  Normal BFGS step
   17    -491.0477743576      1.56e-08     00000  Normal BFGS step
   18    -491.0477743576      2.05e-08     00000  Normal BFGS step
   19    -491.0477743576      9.91e-09     00000 Convergence criterion met
The disked orbital energies are calculated using alpha and beta Focks
Timing for Single Stationary Point: 138.00s (wall), 1088.34s (cpu)
Begin Timing: Stability
===================================================
Beginning Test for Internal Stability
===================================================
generating davidson guess vectors based on koopmans-like excitations
    1      4.54e-01     00000 Davidson Iteration
    2      1.73e-01     00000 Davidson Iteration
    3      3.15e-02     00000 Davidson Iteration
    4      1.93e-02     00000 Davidson Iteration
    5      7.77e-03     00000 Davidson Iteration
    6      2.29e-03     00000 Davidson Iteration
    7      7.05e-04     00000 Davidson Iteration
    8      2.38e-04     00000 Davidson Iteration
    9      2.60e-04     00000 Davidson Iteration
   10      1.16e-04     00000 Davidson Iteration
   11      5.47e-05     00000 Davidson Converged
converged_eigenvalues
   0.2191
   0.2552
Threshold for negative eigenvalues: -1.0e-05
solution was a local minimum (stable)
===================================================
End Test for Internal Stability
===================================================
Our SCF solution is stable!
The disked orbital energies are calculated using alpha and beta Focks
Timing for Total SCF: 255.00s (wall), 2013.94s (cpu)
 Total energy in the final basis set =     -491.0477743576
<S^2> =          0.750000000
    ==================================================
              The end of Object-Oriented SCFman       
    ==================================================
 
 Components of the MP2 correlation energy:
        aaaa  correlation energy =        -0.0199404665 au
        abab  correlation energy =        -0.4774903321 au
        bbbb  correlation energy =        -0.0197389445 au
        non-Brillouin singles    =        -0.0027144240 au

 Total  MP2   correlation energy =                    -0.51988417 au
        MP2         total energy =                  -491.56765852 au
 
 --------------------------------------------------------------
 
                    Orbital Energies (a.u.)
 --------------------------------------------------------------
 
 Alpha MOs
 -- Occupied --
-78.923 -20.042 -20.042  -7.250  -5.248  -5.250  -5.245  -1.293
 -1.243  -0.703  -0.592  -0.571  -0.554  -0.482  -0.475  -0.414
 -- Virtual --
 -0.022   0.039   0.043   0.055   0.060   0.110   0.143   0.149
  0.158   0.175   0.182   0.189   0.206   0.210   0.218   0.276
  0.296   0.311   0.330   0.362   0.404   0.435   0.475   0.488
  0.530   0.544   0.550   0.549   0.564   0.641   0.659   0.710
  0.698   0.714   0.779   0.792   0.794   0.812   0.829   0.824
  0.861   0.881   0.919   0.955   0.955   0.967   1.200   1.195
  1.205   1.205   1.291   1.351   1.403   1.416   1.482   1.519
  1.535   1.637   1.635   1.649   1.699   1.707   1.718   1.756
  1.920   1.969   2.009   2.025   2.027   2.046   2.119   2.177
  2.182   2.243   2.248   2.281   2.291   2.307   2.341   2.339
  2.356   2.424   2.439   2.509   2.634   2.641   2.680   2.782
  2.949   2.963   3.071   3.247   3.420   3.598   4.112   4.138
  4.206   4.420   4.966   4.974   5.652   5.765   6.306   6.316
  6.317   6.318   6.379   6.444   6.457   6.462   6.536   6.538
  6.545   6.567   6.591   6.607   6.847   6.870   6.871   6.872
  6.967   7.042   7.047   7.324   7.346   7.365   7.426   7.438
  7.642   7.972   8.362   9.969  10.126  11.000  12.715  25.768
 25.785  25.814  25.980  26.623  26.679  26.758  26.760  26.772
 26.782  26.783  26.815  26.819  28.384  28.559  33.109  33.115
 33.255  33.454  33.674  41.756  41.956  42.819  43.461  43.468
 43.471  43.470  43.540  43.544  43.567  43.661  43.668  43.681
 72.219 137.470 137.485 137.505 137.625 138.126 138.195 148.461
148.716
 
 Beta MOs
 -- Occupied --
-78.919 -20.036 -20.036  -7.243  -5.245  -5.238  -5.241  -1.268
 -1.217  -0.659  -0.546  -0.538  -0.543  -0.462  -0.468
 -- Virtual --
 -0.103   0.008   0.046   0.051   0.057   0.069   0.125   0.147
  0.151   0.159   0.180   0.194   0.194   0.210   0.216   0.224
  0.287   0.300   0.319   0.339   0.388   0.415   0.451   0.493
  0.501   0.537   0.551   0.560   0.565   0.575   0.647   0.662
  0.717   0.717   0.723   0.783   0.795   0.801   0.820   0.837
  0.842   0.869   0.891   0.925   0.958   0.962   0.973   1.203
  1.207   1.207   1.227   1.305   1.357   1.425   1.437   1.487
  1.526   1.540   1.647   1.658   1.675   1.706   1.721   1.727
  1.768   1.942   1.976   2.013   2.029   2.029   2.056   2.132
  2.181   2.186   2.246   2.256   2.296   2.300   2.324   2.346
  2.346   2.372   2.435   2.450   2.513   2.643   2.644   2.692
  2.795   2.958   2.967   3.081   3.259   3.428   3.605   4.116
  4.152   4.211   4.427   4.977   4.991   5.663   5.775   6.308
  6.320   6.323   6.323   6.389   6.452   6.467   6.471   6.544
  6.549   6.556   6.572   6.602   6.613   6.857   6.876   6.878
  6.880   6.977   7.054   7.062   7.334   7.355   7.379   7.443
  7.451   7.646   7.978   8.368   9.975  10.143  11.003  12.721
 25.770  25.793  25.817  25.985  26.633  26.687  26.760  26.761
 26.774  26.784  26.786  26.817  26.822  28.390  28.565  33.115
 33.121  33.258  33.460  33.678  41.758  41.963  42.821  43.466
 43.471  43.474  43.474  43.548  43.549  43.574  43.669  43.676
 43.690  72.223 137.471 137.487 137.506 137.627 138.129 138.198
148.463 148.719
 --------------------------------------------------------------
 
          Ground-State Mulliken Net Atomic Charges

     Atom                 Charge (a.u.)
  ----------------------------------------
      1 P                     1.340731
      2 O                    -0.670366
      3 O                    -0.670366
  ----------------------------------------
  Sum of atomic charges =    -0.000000

 -----------------------------------------------------------------
                    Cartesian Multipole Moments
 -----------------------------------------------------------------
    Charge (ESU x 10^10)
                -0.0000
    Dipole Moment (Debye)
         X      -0.0000      Y       0.0000      Z       1.8216
       Tot       1.8216
    Quadrupole Moments (Debye-Ang)
        XX     -20.5454     XY       0.0000     YY     -29.5812
        XZ       0.0000     YZ      -0.0000     ZZ     -21.7337
    Octopole Moments (Debye-Ang^2)
       XXX      -0.0000    XXY      -0.0000    XYY      -0.0000
       YYY       0.0000    XXZ       0.1794    XYZ      -0.0000
       YYZ       1.1038    XZZ       0.0000    YZZ       0.0000
       ZZZ      -0.7382
    Hexadecapole Moments (Debye-Ang^3)
      XXXX     -20.1280   XXXY      -0.0000   XXYY     -28.5929
      XYYY      -0.0000   YYYY    -159.7587   XXXZ       0.0000
      XXYZ      -0.0000   XYYZ       0.0000   YYYZ      -0.0000
      XXZZ      -8.8682   XYZZ       0.0000   YYZZ     -30.5381
      XZZZ       0.0000   YZZZ      -0.0000   ZZZZ     -34.2898
 -----------------------------------------------------------------
Archival summary:
1\1\n0101.mhg0\SP\ROProcedureUnspecified\BasisUnspecified\12(2)\yhljason\SatNov1421:22:422020SatNov1421:22:422020\0\\#,ROProcedureUnspecified,BasisUnspecified,\\0,2\P\O,1,1.46652\O,1,1.46652,2,135.289\\\@

 Total job time:  381.16s(wall), 3022.63s(cpu) 
 Sat Nov 14 21:22:42 2020

        *************************************************************
        *                                                           *
        *  Thank you very much for using Q-Chem.  Have a nice day.  *
        *                                                           *
        *************************************************************


 
User input: 2 of 7 
 
Q-Chem Developer Version!
                  Welcome to Q-Chem
     A Quantum Leap Into The Future Of Chemistry


 Q-Chem 5.1, Q-Chem, Inc., Pleasanton, CA (2018)

 Yihan Shao,  Zhengting Gan,  E. Epifanovsky,  A. T. B. Gilbert,  M. Wormit,  
 J. Kussmann,  A. W. Lange,  A. Behn,  Jia Deng,  Xintian Feng,  D. Ghosh,  
 M. Goldey,  P. R. Horn,  L. D. Jacobson,  I. Kaliman,  T. Kus,  A. Landau,  
 Jie Liu,  E. I. Proynov,  R. M. Richard,  R. P. Steele,  E. J. Sundstrom,  
 H. L. Woodcock III,  P. M. Zimmerman,  D. Zuev,  B. Albrecht,  E. Alguire,  
 S. A. Baeppler,  D. Barton,  Z. Benda,  Y. A. Bernard,  E. J. Berquist,  
 K. B. Bravaya,  H. Burton,  D. Casanova,  Chun-Min Chang,  Yunqing Chen,  
 A. Chien,  K. D. Closser,  M. P. Coons,  S. Coriani,  S. Dasgupta,  
 A. L. Dempwolff,  M. Diedenhofen,  Hainam Do,  R. G. Edgar,  Po-Tung Fang,  
 S. Faraji,  S. Fatehi,  Qingguo Feng,  K. D. Fenk,  J. Fosso-Tande,  
 Qinghui Ge,  A. Ghysels,  G. Gidofalvi,  J. Gomes,  J. Gonthier,  A. Gunina,  
 D. Hait,  M. W. D. Hanson-Heine,  P. H. P. Harbach,  A. W. Hauser,  
 J. E. Herr,  E. G. Hohenstein,  Z. C. Holden,  Kerwin Hui,  B. C. Huynh,  
 T.-C. Jagau,  Hyunjun Ji,  B. Kaduk,  K. Khistyaev,  Jaehoon Kim,  
 P. Klunzinger,  K. Koh,  D. Kosenkov,  L. Koulias,  T. Kowalczyk,  
 C. M. Krauter,  A. Kunitsa,  Ka Un Lao,  A. Laurent,  K. V. Lawler,  
 Joonho Lee,  D. Lefrancois,  S. Lehtola,  D. S. Levine,  Yi-Pei Li,  
 You-Sheng Lin,  Fenglai Liu,  E. Livshits,  A. Luenser,  P. Manohar,  
 E. Mansoor,  S. F. Manzer,  Shan-Ping Mao,  Yuezhi Mao,  N. Mardirossian,  
 A. V. Marenich,  T. Markovich,  L. A. Martinez-Martinez,  S. A. Maurer,  
 N. J. Mayhall,  S. C. McKenzie,  J.-M. Mewes,  A. F. Morrison,  
 J. W. Mullinax,  K. Nanda,  T. S. Nguyen-Beck,  R. Olivares-Amaya,  
 J. A. Parkhill,  T. M. Perrine,  F. Plasser,  P. Pokhilko,  S. Prager,  
 A. Prociuk,  E. Ramos,  D. R. Rehn,  F. Rob,  M. Schneider,  N. Sergueev,  
 S. M. Sharada,  S. Sharma,  D. W. Small,  T. Stauch,  T. Stein,  
 Yu-Chuan Su,  A. J. W. Thom,  A. Tkatchenko,  T. Tsuchimochi,  N. M. Tubman,  
 L. Vogt,  M. L. Vidal,  O. Vydrov,  M. A. Watson,  J. Wenzel,  
 M. de Wergifosse,  T. A. Wesolowski,  A. White,  J. Witte,  A. Yamada,  
 Jun Yang,  K. Yao,  S. Yeganeh,  S. R. Yost,  Zhi-Qiang You,  A. Zech,  
 Igor Ying Zhang,  Xing Zhang,  Yan Zhao,  Ying Zhu,  B. R. Brooks,  
 G. K. L. Chan,  C. J. Cramer,  M. S. Gordon,  W. J. Hehre,  A. Klamt,  
 M. W. Schmidt,  C. D. Sherrill,  D. G. Truhlar,  A. Aspuru-Guzik,  R. Baer,  
 A. T. Bell,  N. A. Besley,  Jeng-Da Chai,  A. E. DePrince, III,  
 R. A. DiStasio Jr.,  A. Dreuw,  B. D. Dunietz,  T. R. Furlani,  
 Chao-Ping Hsu,  Yousung Jung,  Jing Kong,  D. S. Lambrecht,  WanZhen Liang,  
 C. Ochsenfeld,  V. A. Rassolov,  L. V. Slipchenko,  J. E. Subotnik,  
 T. Van Voorhis,  J. M. Herbert,  A. I. Krylov,  P. M. W. Gill,  M. Head-Gordon

 Contributors to earlier versions of Q-Chem not listed above: 
 R. D. Adamson,  B. Austin,  J. Baker,  G. J. O. Beran,  K. Brandhorst,  
 S. T. Brown,  E. F. C. Byrd,  A. K. Chakraborty,  C.-L. Cheng,  
 Siu Hung Chien,  D. M. Chipman,  D. L. Crittenden,  H. Dachsel,  
 R. J. Doerksen,  A. D. Dutoi,  L. Fusti-Molnar,  W. A. Goddard III,  
 A. Golubeva-Zadorozhnaya,  S. R. Gwaltney,  G. Hawkins,  A. Heyden,  
 S. Hirata,  G. Kedziora,  F. J. Keil,  C. Kelley,  Jihan Kim,  R. A. King,  
 R. Z. Khaliullin,  P. P. Korambath,  W. Kurlancheek,  A. M. Lee,  M. S. Lee,  
 S. V. Levchenko,  Ching Yeh Lin,  D. Liotard,  R. C. Lochan,  I. Lotan,  
 P. E. Maslen,  N. Nair,  D. P. O'Neill,  D. Neuhauser,  E. Neuscamman,  
 C. M. Oana,  R. Olson,  B. Peters,  R. Peverati,  P. A. Pieniazek,  
 Y. M. Rhee,  J. Ritchie,  M. A. Rohrdanz,  E. Rosta,  N. J. Russ,  
 H. F. Schaefer III,  N. E. Schultz,  N. Shenvi,  A. C. Simmonett,  A. Sodt,  
 D. Stuck,  K. S. Thanthiriwatte,  V. Vanovschi,  Tao Wang,  A. Warshel,  
 C. F. Williams,  Q. Wu,  X. Xu,  W. Zhang

 Please cite Q-Chem as follows:
 Y. Shao et al., Mol. Phys. 113, 184-215 (2015)
 DOI: 10.1080/00268976.2014.952696

 Q-Chem 5.1.1 for Intel X86 EM64T Linux

 Parts of Q-Chem use Armadillo 8.300.2 (Tropical Shenanigans).
 http://arma.sourceforge.net/

 Q-Chem begins on Sat Nov 14 21:22:42 2020  

Host: n0101.mhg0
0

     Scratch files written to /local/scratch/users/yhljason/PO2_DSD-PBEPBE-D3_aug-cc-pcVTZ.inp20201114211618//
The previous job contains 0 fragments, simply inherited here
Input Ideriv = 0
Curr. Ideriv = -1
Max.  Ideriv = 0
Input Ideriv = 1
Curr. Ideriv = 0
Max.  Ideriv = 0

Checking the input file for inconsistencies... 	...done.

--------------------------------------------------------------
User input:
--------------------------------------------------------------
$molecule
read
$end

$rem
jobtype sp
exchange DSD-PBEPBE-D3
xc_grid 000099000590
basis aug-cc-pcVTZ

max_scf_cycles 200
thresh 14
scf_convergence 8
mem_total 128000
cc_memory 96000
cc_backend xm
mem_static 1500
symmetry false
sym_ignore true
scf_guess read
unrestricted false
scf_algorithm gdm
n_frozen_core 0
$end



$multipole_field
XX 0.0001
$end


--------------------------------------------------------------
 Adding empirical dispersion correction 
 ----------------------------------------------------------------
 Doing -D3(BJ) with
 s6 =   0.78000
 s8 =   0.00000
 a1 =   0.00000
 a2 =   6.10000
 -D3 energy without 3body term =     -0.0014651537 hartrees
 ----------------------------------------------------------------
             Standard Nuclear Orientation (Angstroms)
    I     Atom           X                Y                Z
 ----------------------------------------------------------------
    1      P       0.0000000000     0.0000000000     0.2879000000
    2      O       0.0000000000     1.3563000000    -0.2699000000
    3      O       0.0000000000    -1.3563000000    -0.2699000000
 ----------------------------------------------------------------
 Nuclear Repulsion Energy =    99.0848313607 hartrees
 There are       16 alpha and       15 beta electrons
 Requested basis set is aug-cc-pCVTZ
 There are 61 shells and 193 basis functions

 Total QAlloc Memory Limit 128000 MB
 Mega-Array Size      1467 MB
 MEM_STATIC part      1500 MB

                       Distance Matrix (Angstroms)
             P (  1)   O (  2)
   O (  2)  1.466523
   O (  3)  1.466523  2.712600
 
 Applying Cartesian multipole field
    Component          Value
    ---------          -----
     (2,0,0)        1.00000E-04
 A cutoff of  1.0D-14 yielded   1808 shell pairs
 There are     18384 function pairs (     25621 Cartesian)
 
 -------------------------------------------------------
 OpenMP Integral Computing Module                       
 Release: version 1.0, May 2013, Q-Chem Inc. Pittsburgh 
 -------------------------------------------------------
 Integral Job Info:
 Integral job number is                      11
 Integral operator is                         1
 short-range coefficients                     0
 long-range coefficients              100000000
 Omega coefficients                           0
 if combine SR and LR in K                    0
 Integral screening is                        0
 Integral computing path is                   2
 max size of driver memory is            800000
 size of driver memory is                776718
 size of scratch memory is             29531563
 max col of scratch BK array              10000
 max len of scratch array in speh3          662
 max len of scratch index in speh4           32
 max int batch size is                      520
 min int batch size is                       52
 fixed nKL is                                31
 max L of basis functions is                  3
 order of int derivative is                   0
 number of shells is                         61
 number of basis is                         227
 number of cartesian basis is               227
 number of contracted shell pairs          1808
 number of primitive shell pairs           8014
 maxK2 (contraction) of shell pair          169
 max number of K2 of shell pair               1
 max number of CS2 of shell pair            217
 max number of PS2 of shell pair           1014
 mem total for path MDJ                  607252
 -------------------------------------------------------
 Smallest overlap matrix eigenvalue = 2.46E-04
 Guess MOs from SCF MO coefficient file
 Reading MOs from coefficient file
 Reading MOs from coefficient file
 A restricted hybrid HF-DFT SCF calculation will be
 performed using Geometric Direct Minimization
 Exchange:     0.6800 Hartree-Fock + 0.3200 PBE
 Correlation:  0.4900 PBE
 Using Euler-Maclaurin-Lebedev (99,590) quadrature formula
 Dispersion:   Grimme D3
 SCF converges when RMS gradient is below 1.0E-08
Using Q-Chem read-in guess as SCF_GUESS READ specified.

 using 8 threads for integral computing
 -------------------------------------------------------
 OpenMP Integral computing Module                
 Release: version 2.0, May 2017, Q-Chem Inc. Pleasanton 
 -------------------------------------------------------
TIMEINFO->: J/JK contribution 48.21 sec.
 -------------------------------------------------------
 OpenMP BLAS3 based DFT computing Module                
 Release: version 1.0, May 2013, Q-Chem Inc. Pittsburgh 
 -------------------------------------------------------
 ---------------------------------------
  Cycle       Energy        RMS Gradient
 ---------------------------------------
    1    -491.0493018563      4.10E-04 Normal BFGS step
TIMEINFO->: J/JK contribution 47.40 sec.
    2    -491.0493022210      2.21E-04 Normal BFGS step
TIMEINFO->: J/JK contribution 47.02 sec.
    3    -491.0493022881      9.76E-05 Normal BFGS step
TIMEINFO->: J/JK contribution 44.70 sec.
    4    -491.0493023024      6.96E-05 Normal BFGS step
TIMEINFO->: J/JK contribution 44.31 sec.
    5    -491.0493023055      1.53E-05 Normal BFGS step
TIMEINFO->: J/JK contribution 44.19 sec.
    6    -491.0493023057      3.72E-06 Normal BFGS step
TIMEINFO->: J/JK contribution 43.29 sec.
    7    -491.0493023057      8.94E-07 Normal BFGS step
TIMEINFO->: J/JK contribution 43.80 sec.
    8    -491.0493023057      3.26E-07 Normal BFGS step
TIMEINFO->: J/JK contribution 44.30 sec.
   GDM::WARNING energy changes are now smaller than effective accuracy.
   GDM::        calculation will continue, but THRESH should be increased
   GDM::        or SCF_CONVERGENCE decreased.
   GDM::        effective_thresh =   1.600000000000000E-010
    9    -491.0493023057      1.16E-07 Normal BFGS step
TIMEINFO->: J/JK contribution 42.32 sec.
   10    -491.0493023057      4.79E-08 Normal BFGS step
TIMEINFO->: J/JK contribution 40.71 sec.
   11    -491.0493023057      1.50E-08 Normal BFGS step
TIMEINFO->: J/JK contribution 40.05 sec.
   GDM::WARNING energy changes are now smaller than effective accuracy.
   GDM::        calculation will continue, but THRESH should be increased
   GDM::        or SCF_CONVERGENCE decreased.
   GDM::        effective_thresh =   1.600000000000000E-010
   12    -491.0493023057      2.78E-09 Convergence criterion met
 ---------------------------------------
 SCF time:  CPU 653.32 s  wall 82.50 s
 SCF   energy in the final basis set = -491.04930231
 Total energy in the final basis set = -491.04930231
 
 Components of the MP2 correlation energy:
        aaaa  correlation energy =        -0.0199421987 au
        abab  correlation energy =        -0.4775202067 au
        bbbb  correlation energy =        -0.0197408025 au
        non-Brillouin singles    =        -0.0027150019 au

 Total  MP2   correlation energy =                    -0.51991821 au
        MP2         total energy =                  -491.56922052 au
 
 --------------------------------------------------------------
 
                    Orbital Energies (a.u.)
 --------------------------------------------------------------
 
 Alpha MOs
 -- Occupied --
-78.923 -20.043 -20.043  -7.251  -5.249  -5.245  -5.250  -1.294
 -1.244  -0.702  -0.591  -0.572  -0.554  -0.475  -0.484  -0.414
 -- Virtual --
 -0.027   0.036   0.042   0.053   0.058   0.109   0.141   0.148
  0.156   0.173   0.179   0.188   0.204   0.209   0.218   0.275
  0.295   0.310   0.329   0.364   0.402   0.432   0.474   0.488
  0.529   0.543   0.549   0.550   0.565   0.641   0.659   0.697
  0.710   0.714   0.779   0.791   0.794   0.812   0.824   0.828
  0.861   0.881   0.919   0.954   0.954   0.967   1.194   1.199
  1.204   1.203   1.293   1.351   1.402   1.416   1.481   1.519
  1.535   1.637   1.635   1.649   1.698   1.707   1.717   1.756
  1.920   1.968   2.009   2.025   2.027   2.046   2.118   2.177
  2.181   2.243   2.248   2.278   2.290   2.308   2.338   2.340
  2.358   2.423   2.439   2.509   2.634   2.641   2.680   2.782
  2.949   2.962   3.071   3.247   3.420   3.598   4.112   4.137
  4.206   4.420   4.966   4.974   5.652   5.764   6.306   6.316
  6.317   6.317   6.379   6.444   6.457   6.462   6.536   6.538
  6.545   6.567   6.590   6.606   6.847   6.870   6.871   6.871
  6.967   7.042   7.046   7.324   7.346   7.365   7.426   7.437
  7.642   7.972   8.362   9.969  10.126  11.000  12.715  25.767
 25.785  25.814  25.980  26.623  26.679  26.758  26.759  26.772
 26.782  26.783  26.815  26.819  28.384  28.559  33.109  33.115
 33.255  33.454  33.674  41.756  41.956  42.819  43.461  43.467
 43.470  43.471  43.539  43.544  43.567  43.661  43.668  43.681
 72.218 137.470 137.485 137.504 137.625 138.126 138.195 148.461
148.716
 
 Beta MOs
 -- Occupied --
-78.919 -20.036 -20.036  -7.244  -5.245  -5.241  -5.238  -1.268
 -1.218  -0.660  -0.547  -0.537  -0.543  -0.469  -0.461
 -- Virtual --
 -0.104   0.008   0.045   0.050   0.056   0.065   0.124   0.147
  0.150   0.157   0.179   0.195   0.193   0.208   0.215   0.223
  0.286   0.299   0.319   0.338   0.387   0.414   0.452   0.492
  0.500   0.536   0.550   0.559   0.564   0.574   0.647   0.661
  0.717   0.716   0.723   0.782   0.795   0.800   0.820   0.841
  0.837   0.869   0.891   0.925   0.958   0.961   0.973   1.206
  1.203   1.207   1.228   1.304   1.356   1.424   1.437   1.487
  1.526   1.540   1.646   1.658   1.675   1.706   1.720   1.726
  1.768   1.942   1.976   2.013   2.028   2.029   2.056   2.132
  2.181   2.186   2.245   2.255   2.296   2.300   2.323   2.346
  2.346   2.371   2.435   2.450   2.513   2.643   2.644   2.692
  2.795   2.957   2.967   3.081   3.259   3.428   3.604   4.116
  4.152   4.211   4.426   4.977   4.991   5.663   5.775   6.308
  6.319   6.323   6.323   6.389   6.452   6.466   6.471   6.544
  6.549   6.556   6.572   6.601   6.613   6.856   6.875   6.878
  6.880   6.977   7.054   7.062   7.334   7.354   7.379   7.443
  7.450   7.646   7.977   8.368   9.974  10.143  11.003  12.721
 25.770  25.793  25.816  25.985  26.633  26.687  26.760  26.761
 26.774  26.784  26.785  26.817  26.822  28.390  28.565  33.115
 33.121  33.258  33.460  33.678  41.758  41.963  42.821  43.466
 43.471  43.474  43.473  43.548  43.548  43.574  43.669  43.676
 43.689  72.223 137.471 137.487 137.505 137.626 138.129 138.198
148.463 148.718
 --------------------------------------------------------------
 
          Ground-State Mulliken Net Atomic Charges

     Atom                 Charge (a.u.)
  ----------------------------------------
      1 P                     1.339813
      2 O                    -0.669907
      3 O                    -0.669907
  ----------------------------------------
  Sum of atomic charges =    -0.000000

 -----------------------------------------------------------------
                    Cartesian Multipole Moments
 -----------------------------------------------------------------
    Charge (ESU x 10^10)
                -0.0000
    Dipole Moment (Debye)
         X       0.0000      Y       0.0000      Z       1.8209
       Tot       1.8209
    Quadrupole Moments (Debye-Ang)
        XX     -20.5575     XY      -0.0000     YY     -29.5799
        XZ       0.0000     YZ      -0.0000     ZZ     -21.7349
    Octopole Moments (Debye-Ang^2)
       XXX       0.0000    XXY      -0.0000    XYY      -0.0000
       YYY       0.0000    XXZ       0.1768    XYZ       0.0000
       YYZ       1.1015    XZZ       0.0000    YZZ      -0.0000
       ZZZ      -0.7385
    Hexadecapole Moments (Debye-Ang^3)
      XXXX     -20.1725   XXXY      -0.0000   XXYY     -28.6085
      XYYY      -0.0000   YYYY    -159.7641   XXXZ       0.0000
      XXYZ       0.0000   XYYZ      -0.0000   YYYZ      -0.0000
      XXZZ      -8.8787   XYZZ      -0.0000   YYZZ     -30.5416
      XZZZ       0.0000   YZZZ       0.0000   ZZZZ     -34.2979
 -----------------------------------------------------------------
Archival summary:
1\1\n0101.mhg0\SP\ROProcedureUnspecified\BasisUnspecified\12(2)\yhljason\SatNov1421:26:042020SatNov1421:26:042020\0\\#,ROProcedureUnspecified,BasisUnspecified,\\0,2\P\O,1,1.46652\O,1,1.46652,2,135.289\\\@

 Total job time:  202.58s(wall), 1568.76s(cpu) 
 Sat Nov 14 21:26:04 2020

        *************************************************************
        *                                                           *
        *  Thank you very much for using Q-Chem.  Have a nice day.  *
        *                                                           *
        *************************************************************


 
User input: 3 of 7 
 
Q-Chem Developer Version!
                  Welcome to Q-Chem
     A Quantum Leap Into The Future Of Chemistry


 Q-Chem 5.1, Q-Chem, Inc., Pleasanton, CA (2018)

 Yihan Shao,  Zhengting Gan,  E. Epifanovsky,  A. T. B. Gilbert,  M. Wormit,  
 J. Kussmann,  A. W. Lange,  A. Behn,  Jia Deng,  Xintian Feng,  D. Ghosh,  
 M. Goldey,  P. R. Horn,  L. D. Jacobson,  I. Kaliman,  T. Kus,  A. Landau,  
 Jie Liu,  E. I. Proynov,  R. M. Richard,  R. P. Steele,  E. J. Sundstrom,  
 H. L. Woodcock III,  P. M. Zimmerman,  D. Zuev,  B. Albrecht,  E. Alguire,  
 S. A. Baeppler,  D. Barton,  Z. Benda,  Y. A. Bernard,  E. J. Berquist,  
 K. B. Bravaya,  H. Burton,  D. Casanova,  Chun-Min Chang,  Yunqing Chen,  
 A. Chien,  K. D. Closser,  M. P. Coons,  S. Coriani,  S. Dasgupta,  
 A. L. Dempwolff,  M. Diedenhofen,  Hainam Do,  R. G. Edgar,  Po-Tung Fang,  
 S. Faraji,  S. Fatehi,  Qingguo Feng,  K. D. Fenk,  J. Fosso-Tande,  
 Qinghui Ge,  A. Ghysels,  G. Gidofalvi,  J. Gomes,  J. Gonthier,  A. Gunina,  
 D. Hait,  M. W. D. Hanson-Heine,  P. H. P. Harbach,  A. W. Hauser,  
 J. E. Herr,  E. G. Hohenstein,  Z. C. Holden,  Kerwin Hui,  B. C. Huynh,  
 T.-C. Jagau,  Hyunjun Ji,  B. Kaduk,  K. Khistyaev,  Jaehoon Kim,  
 P. Klunzinger,  K. Koh,  D. Kosenkov,  L. Koulias,  T. Kowalczyk,  
 C. M. Krauter,  A. Kunitsa,  Ka Un Lao,  A. Laurent,  K. V. Lawler,  
 Joonho Lee,  D. Lefrancois,  S. Lehtola,  D. S. Levine,  Yi-Pei Li,  
 You-Sheng Lin,  Fenglai Liu,  E. Livshits,  A. Luenser,  P. Manohar,  
 E. Mansoor,  S. F. Manzer,  Shan-Ping Mao,  Yuezhi Mao,  N. Mardirossian,  
 A. V. Marenich,  T. Markovich,  L. A. Martinez-Martinez,  S. A. Maurer,  
 N. J. Mayhall,  S. C. McKenzie,  J.-M. Mewes,  A. F. Morrison,  
 J. W. Mullinax,  K. Nanda,  T. S. Nguyen-Beck,  R. Olivares-Amaya,  
 J. A. Parkhill,  T. M. Perrine,  F. Plasser,  P. Pokhilko,  S. Prager,  
 A. Prociuk,  E. Ramos,  D. R. Rehn,  F. Rob,  M. Schneider,  N. Sergueev,  
 S. M. Sharada,  S. Sharma,  D. W. Small,  T. Stauch,  T. Stein,  
 Yu-Chuan Su,  A. J. W. Thom,  A. Tkatchenko,  T. Tsuchimochi,  N. M. Tubman,  
 L. Vogt,  M. L. Vidal,  O. Vydrov,  M. A. Watson,  J. Wenzel,  
 M. de Wergifosse,  T. A. Wesolowski,  A. White,  J. Witte,  A. Yamada,  
 Jun Yang,  K. Yao,  S. Yeganeh,  S. R. Yost,  Zhi-Qiang You,  A. Zech,  
 Igor Ying Zhang,  Xing Zhang,  Yan Zhao,  Ying Zhu,  B. R. Brooks,  
 G. K. L. Chan,  C. J. Cramer,  M. S. Gordon,  W. J. Hehre,  A. Klamt,  
 M. W. Schmidt,  C. D. Sherrill,  D. G. Truhlar,  A. Aspuru-Guzik,  R. Baer,  
 A. T. Bell,  N. A. Besley,  Jeng-Da Chai,  A. E. DePrince, III,  
 R. A. DiStasio Jr.,  A. Dreuw,  B. D. Dunietz,  T. R. Furlani,  
 Chao-Ping Hsu,  Yousung Jung,  Jing Kong,  D. S. Lambrecht,  WanZhen Liang,  
 C. Ochsenfeld,  V. A. Rassolov,  L. V. Slipchenko,  J. E. Subotnik,  
 T. Van Voorhis,  J. M. Herbert,  A. I. Krylov,  P. M. W. Gill,  M. Head-Gordon

 Contributors to earlier versions of Q-Chem not listed above: 
 R. D. Adamson,  B. Austin,  J. Baker,  G. J. O. Beran,  K. Brandhorst,  
 S. T. Brown,  E. F. C. Byrd,  A. K. Chakraborty,  C.-L. Cheng,  
 Siu Hung Chien,  D. M. Chipman,  D. L. Crittenden,  H. Dachsel,  
 R. J. Doerksen,  A. D. Dutoi,  L. Fusti-Molnar,  W. A. Goddard III,  
 A. Golubeva-Zadorozhnaya,  S. R. Gwaltney,  G. Hawkins,  A. Heyden,  
 S. Hirata,  G. Kedziora,  F. J. Keil,  C. Kelley,  Jihan Kim,  R. A. King,  
 R. Z. Khaliullin,  P. P. Korambath,  W. Kurlancheek,  A. M. Lee,  M. S. Lee,  
 S. V. Levchenko,  Ching Yeh Lin,  D. Liotard,  R. C. Lochan,  I. Lotan,  
 P. E. Maslen,  N. Nair,  D. P. O'Neill,  D. Neuhauser,  E. Neuscamman,  
 C. M. Oana,  R. Olson,  B. Peters,  R. Peverati,  P. A. Pieniazek,  
 Y. M. Rhee,  J. Ritchie,  M. A. Rohrdanz,  E. Rosta,  N. J. Russ,  
 H. F. Schaefer III,  N. E. Schultz,  N. Shenvi,  A. C. Simmonett,  A. Sodt,  
 D. Stuck,  K. S. Thanthiriwatte,  V. Vanovschi,  Tao Wang,  A. Warshel,  
 C. F. Williams,  Q. Wu,  X. Xu,  W. Zhang

 Please cite Q-Chem as follows:
 Y. Shao et al., Mol. Phys. 113, 184-215 (2015)
 DOI: 10.1080/00268976.2014.952696

 Q-Chem 5.1.1 for Intel X86 EM64T Linux

 Parts of Q-Chem use Armadillo 8.300.2 (Tropical Shenanigans).
 http://arma.sourceforge.net/

 Q-Chem begins on Sat Nov 14 21:26:04 2020  

Host: n0101.mhg0
0

     Scratch files written to /local/scratch/users/yhljason/PO2_DSD-PBEPBE-D3_aug-cc-pcVTZ.inp20201114211618//
The previous job contains 0 fragments, simply inherited here
Input Ideriv = 0
Curr. Ideriv = -1
Max.  Ideriv = 0
Input Ideriv = 1
Curr. Ideriv = 0
Max.  Ideriv = 0

Checking the input file for inconsistencies... 	...done.

--------------------------------------------------------------
User input:
--------------------------------------------------------------
$molecule
read
$end

$rem
jobtype sp
exchange DSD-PBEPBE-D3
xc_grid 000099000590
basis aug-cc-pcVTZ

max_scf_cycles 200
thresh 14
scf_convergence 8
mem_total 128000
cc_memory 96000
cc_backend xm
mem_static 1500
symmetry false
sym_ignore true
scf_guess read
unrestricted false
scf_algorithm gdm
n_frozen_core 0
$end



$multipole_field
XX -0.0001
$end


--------------------------------------------------------------
 Adding empirical dispersion correction 
 ----------------------------------------------------------------
 Doing -D3(BJ) with
 s6 =   0.78000
 s8 =   0.00000
 a1 =   0.00000
 a2 =   6.10000
 -D3 energy without 3body term =     -0.0014651537 hartrees
 ----------------------------------------------------------------
             Standard Nuclear Orientation (Angstroms)
    I     Atom           X                Y                Z
 ----------------------------------------------------------------
    1      P       0.0000000000     0.0000000000     0.2879000000
    2      O       0.0000000000     1.3563000000    -0.2699000000
    3      O       0.0000000000    -1.3563000000    -0.2699000000
 ----------------------------------------------------------------
 Nuclear Repulsion Energy =    99.0848313607 hartrees
 There are       16 alpha and       15 beta electrons
 Requested basis set is aug-cc-pCVTZ
 There are 61 shells and 193 basis functions

 Total QAlloc Memory Limit 128000 MB
 Mega-Array Size      1467 MB
 MEM_STATIC part      1500 MB

                       Distance Matrix (Angstroms)
             P (  1)   O (  2)
   O (  2)  1.466523
   O (  3)  1.466523  2.712600
 
 Applying Cartesian multipole field
    Component          Value
    ---------          -----
     (2,0,0)       -1.00000E-04
 A cutoff of  1.0D-14 yielded   1808 shell pairs
 There are     18384 function pairs (     25621 Cartesian)
 
 -------------------------------------------------------
 OpenMP Integral Computing Module                       
 Release: version 1.0, May 2013, Q-Chem Inc. Pittsburgh 
 -------------------------------------------------------
 Integral Job Info:
 Integral job number is                      11
 Integral operator is                         1
 short-range coefficients                     0
 long-range coefficients              100000000
 Omega coefficients                           0
 if combine SR and LR in K                    0
 Integral screening is                        0
 Integral computing path is                   2
 max size of driver memory is            800000
 size of driver memory is                776718
 size of scratch memory is             29531563
 max col of scratch BK array              10000
 max len of scratch array in speh3          662
 max len of scratch index in speh4           32
 max int batch size is                      520
 min int batch size is                       52
 fixed nKL is                                31
 max L of basis functions is                  3
 order of int derivative is                   0
 number of shells is                         61
 number of basis is                         227
 number of cartesian basis is               227
 number of contracted shell pairs          1808
 number of primitive shell pairs           8014
 maxK2 (contraction) of shell pair          169
 max number of K2 of shell pair               1
 max number of CS2 of shell pair            217
 max number of PS2 of shell pair           1014
 mem total for path MDJ                  607252
 -------------------------------------------------------
 Smallest overlap matrix eigenvalue = 2.46E-04
 Guess MOs from SCF MO coefficient file
 Reading MOs from coefficient file
 Reading MOs from coefficient file
 A restricted hybrid HF-DFT SCF calculation will be
 performed using Geometric Direct Minimization
 Exchange:     0.6800 Hartree-Fock + 0.3200 PBE
 Correlation:  0.4900 PBE
 Using Euler-Maclaurin-Lebedev (99,590) quadrature formula
 Dispersion:   Grimme D3
 SCF converges when RMS gradient is below 1.0E-08
Using Q-Chem read-in guess as SCF_GUESS READ specified.

 using 8 threads for integral computing
 -------------------------------------------------------
 OpenMP Integral computing Module                
 Release: version 2.0, May 2017, Q-Chem Inc. Pleasanton 
 -------------------------------------------------------
TIMEINFO->: J/JK contribution 49.29 sec.
 -------------------------------------------------------
 OpenMP BLAS3 based DFT computing Module                
 Release: version 1.0, May 2013, Q-Chem Inc. Pittsburgh 
 -------------------------------------------------------
 ---------------------------------------
  Cycle       Energy        RMS Gradient
 ---------------------------------------
    1    -491.0462455084      8.13E-04 Normal BFGS step
TIMEINFO->: J/JK contribution 46.32 sec.
    2    -491.0462469708      4.29E-04 Normal BFGS step
TIMEINFO->: J/JK contribution 45.15 sec.
    3    -491.0462472349      1.98E-04 Normal BFGS step
TIMEINFO->: J/JK contribution 45.05 sec.
    4    -491.0462472934      1.37E-04 Normal BFGS step
TIMEINFO->: J/JK contribution 44.85 sec.
    5    -491.0462473056      2.97E-05 Normal BFGS step
TIMEINFO->: J/JK contribution 45.08 sec.
    6    -491.0462473063      7.09E-06 Normal BFGS step
TIMEINFO->: J/JK contribution 46.10 sec.
    7    -491.0462473064      1.77E-06 Normal BFGS step
TIMEINFO->: J/JK contribution 44.23 sec.
    8    -491.0462473064      6.31E-07 Normal BFGS step
TIMEINFO->: J/JK contribution 43.14 sec.
    9    -491.0462473064      2.32E-07 Normal BFGS step
TIMEINFO->: J/JK contribution 43.16 sec.
   10    -491.0462473064      9.04E-08 Normal BFGS step
TIMEINFO->: J/JK contribution 41.61 sec.
   GDM::WARNING energy changes are now smaller than effective accuracy.
   GDM::        calculation will continue, but THRESH should be increased
   GDM::        or SCF_CONVERGENCE decreased.
   GDM::        effective_thresh =   1.600000000000000E-010
   11    -491.0462473064      3.24E-08 Normal BFGS step
TIMEINFO->: J/JK contribution 40.12 sec.
   GDM::WARNING energy changes are now smaller than effective accuracy.
   GDM::        calculation will continue, but THRESH should be increased
   GDM::        or SCF_CONVERGENCE decreased.
   GDM::        effective_thresh =   1.600000000000000E-010
   12    -491.0462473064      2.83E-08 Normal BFGS step
TIMEINFO->: J/JK contribution 39.14 sec.
   13    -491.0462473064      1.13E-08 Normal BFGS step
TIMEINFO->: J/JK contribution 38.07 sec.
   GDM::WARNING energy changes are now smaller than effective accuracy.
   GDM::        calculation will continue, but THRESH should be increased
   GDM::        or SCF_CONVERGENCE decreased.
   GDM::        effective_thresh =   1.600000000000000E-010
   14    -491.0462473064      2.79E-09 Convergence criterion met
 ---------------------------------------
 SCF time:  CPU 753.76 s  wall 95.17 s
 SCF   energy in the final basis set = -491.04624731
 Total energy in the final basis set = -491.04624731
 
 Components of the MP2 correlation energy:
        aaaa  correlation energy =        -0.0199387411 au
        abab  correlation energy =        -0.4774605621 au
        bbbb  correlation energy =        -0.0197370929 au
        non-Brillouin singles    =        -0.0027138446 au

 Total  MP2   correlation energy =                    -0.51985024 au
        MP2         total energy =                  -491.56609755 au
 
 --------------------------------------------------------------
 
                    Orbital Energies (a.u.)
 --------------------------------------------------------------
 
 Alpha MOs
 -- Occupied --
-78.923 -20.042 -20.042  -7.250  -5.248  -5.245  -5.250  -1.293
 -1.243  -0.701  -0.591  -0.572  -0.553  -0.474  -0.483  -0.414
 -- Virtual --
 -0.026   0.039   0.044   0.056   0.065   0.111   0.142   0.150
  0.159   0.176   0.181   0.190   0.209   0.211   0.220   0.277
  0.297   0.311   0.331   0.365   0.404   0.433   0.476   0.489
  0.531   0.544   0.550   0.551   0.567   0.642   0.660   0.698
  0.711   0.715   0.780   0.792   0.795   0.813   0.825   0.829
  0.862   0.882   0.919   0.955   0.955   0.967   1.195   1.201
  1.205   1.204   1.293   1.352   1.403   1.416   1.482   1.520
  1.536   1.637   1.636   1.650   1.699   1.708   1.718   1.756
  1.921   1.969   2.010   2.026   2.028   2.046   2.119   2.177
  2.182   2.243   2.248   2.279   2.291   2.308   2.339   2.341
  2.358   2.424   2.439   2.509   2.634   2.642   2.680   2.783
  2.949   2.963   3.071   3.247   3.420   3.599   4.112   4.138
  4.206   4.420   4.966   4.974   5.653   5.765   6.306   6.316
  6.317   6.318   6.379   6.445   6.457   6.463   6.537   6.538
  6.546   6.567   6.591   6.607   6.848   6.871   6.871   6.872
  6.968   7.042   7.047   7.325   7.346   7.365   7.426   7.438
  7.643   7.972   8.362   9.969  10.126  11.000  12.716  25.768
 25.786  25.814  25.980  26.623  26.680  26.759  26.760  26.773
 26.783  26.784  26.815  26.819  28.385  28.559  33.110  33.115
 33.256  33.454  33.674  41.756  41.956  42.819  43.461  43.468
 43.471  43.471  43.540  43.545  43.568  43.661  43.669  43.682
 72.219 137.470 137.485 137.505 137.625 138.126 138.196 148.462
148.717
 
 Beta MOs
 -- Occupied --
-78.919 -20.035 -20.035  -7.243  -5.245  -5.240  -5.238  -1.268
 -1.217  -0.659  -0.547  -0.536  -0.542  -0.468  -0.461
 -- Virtual --
 -0.103   0.010   0.049   0.052   0.059   0.071   0.126   0.148
  0.152   0.160   0.181   0.196   0.195   0.212   0.217   0.225
  0.288   0.301   0.321   0.339   0.387   0.417   0.453   0.493
  0.501   0.537   0.551   0.560   0.565   0.575   0.648   0.662
  0.718   0.718   0.724   0.783   0.795   0.801   0.821   0.842
  0.838   0.870   0.892   0.925   0.959   0.962   0.973   1.207
  1.204   1.208   1.228   1.305   1.357   1.425   1.438   1.487
  1.526   1.541   1.647   1.658   1.676   1.707   1.721   1.727
  1.768   1.942   1.976   2.013   2.029   2.029   2.056   2.132
  2.181   2.186   2.246   2.256   2.297   2.301   2.324   2.347
  2.346   2.371   2.435   2.450   2.513   2.643   2.645   2.692
  2.796   2.958   2.968   3.081   3.260   3.429   3.605   4.116
  4.152   4.211   4.427   4.977   4.991   5.663   5.776   6.309
  6.320   6.323   6.323   6.389   6.453   6.467   6.471   6.544
  6.549   6.556   6.572   6.602   6.614   6.857   6.876   6.879
  6.880   6.977   7.054   7.062   7.334   7.355   7.380   7.444
  7.451   7.646   7.978   8.368   9.975  10.143  11.003  12.721
 25.771  25.793  25.817  25.985  26.634  26.687  26.760  26.761
 26.774  26.784  26.786  26.818  26.822  28.391  28.565  33.116
 33.121  33.258  33.460  33.678  41.759  41.963  42.821  43.466
 43.471  43.474  43.474  43.548  43.549  43.574  43.669  43.676
 43.690  72.223 137.471 137.487 137.506 137.627 138.129 138.198
148.464 148.719
 --------------------------------------------------------------
 
          Ground-State Mulliken Net Atomic Charges

     Atom                 Charge (a.u.)
  ----------------------------------------
      1 P                     1.341639
      2 O                    -0.670819
      3 O                    -0.670819
  ----------------------------------------
  Sum of atomic charges =    -0.000000

 -----------------------------------------------------------------
                    Cartesian Multipole Moments
 -----------------------------------------------------------------
    Charge (ESU x 10^10)
                -0.0000
    Dipole Moment (Debye)
         X      -0.0000      Y      -0.0000      Z       1.8224
       Tot       1.8224
    Quadrupole Moments (Debye-Ang)
        XX     -20.5333     XY      -0.0000     YY     -29.5826
        XZ      -0.0000     YZ       0.0000     ZZ     -21.7325
    Octopole Moments (Debye-Ang^2)
       XXX      -0.0000    XXY       0.0000    XYY      -0.0000
       YYY      -0.0000    XXZ       0.1820    XYZ      -0.0000
       YYZ       1.1060    XZZ       0.0000    YZZ       0.0000
       ZZZ      -0.7378
    Hexadecapole Moments (Debye-Ang^3)
      XXXX     -20.0840   XXXY      -0.0000   XXYY     -28.5774
      XYYY      -0.0000   YYYY    -159.7533   XXXZ       0.0000
      XXYZ      -0.0000   XYYZ      -0.0000   YYYZ       0.0000
      XXZZ      -8.8578   XYZZ      -0.0000   YYZZ     -30.5347
      XZZZ       0.0000   YZZZ      -0.0000   ZZZZ     -34.2819
 -----------------------------------------------------------------
Archival summary:
1\1\n0101.mhg0\SP\ROProcedureUnspecified\BasisUnspecified\12(2)\yhljason\SatNov1421:29:412020SatNov1421:29:412020\0\\#,ROProcedureUnspecified,BasisUnspecified,\\0,2\P\O,1,1.46652\O,1,1.46652,2,135.289\\\@

 Total job time:  216.16s(wall), 1678.07s(cpu) 
 Sat Nov 14 21:29:41 2020

        *************************************************************
        *                                                           *
        *  Thank you very much for using Q-Chem.  Have a nice day.  *
        *                                                           *
        *************************************************************


 
User input: 4 of 7 
 
Q-Chem Developer Version!
                  Welcome to Q-Chem
     A Quantum Leap Into The Future Of Chemistry


 Q-Chem 5.1, Q-Chem, Inc., Pleasanton, CA (2018)

 Yihan Shao,  Zhengting Gan,  E. Epifanovsky,  A. T. B. Gilbert,  M. Wormit,  
 J. Kussmann,  A. W. Lange,  A. Behn,  Jia Deng,  Xintian Feng,  D. Ghosh,  
 M. Goldey,  P. R. Horn,  L. D. Jacobson,  I. Kaliman,  T. Kus,  A. Landau,  
 Jie Liu,  E. I. Proynov,  R. M. Richard,  R. P. Steele,  E. J. Sundstrom,  
 H. L. Woodcock III,  P. M. Zimmerman,  D. Zuev,  B. Albrecht,  E. Alguire,  
 S. A. Baeppler,  D. Barton,  Z. Benda,  Y. A. Bernard,  E. J. Berquist,  
 K. B. Bravaya,  H. Burton,  D. Casanova,  Chun-Min Chang,  Yunqing Chen,  
 A. Chien,  K. D. Closser,  M. P. Coons,  S. Coriani,  S. Dasgupta,  
 A. L. Dempwolff,  M. Diedenhofen,  Hainam Do,  R. G. Edgar,  Po-Tung Fang,  
 S. Faraji,  S. Fatehi,  Qingguo Feng,  K. D. Fenk,  J. Fosso-Tande,  
 Qinghui Ge,  A. Ghysels,  G. Gidofalvi,  J. Gomes,  J. Gonthier,  A. Gunina,  
 D. Hait,  M. W. D. Hanson-Heine,  P. H. P. Harbach,  A. W. Hauser,  
 J. E. Herr,  E. G. Hohenstein,  Z. C. Holden,  Kerwin Hui,  B. C. Huynh,  
 T.-C. Jagau,  Hyunjun Ji,  B. Kaduk,  K. Khistyaev,  Jaehoon Kim,  
 P. Klunzinger,  K. Koh,  D. Kosenkov,  L. Koulias,  T. Kowalczyk,  
 C. M. Krauter,  A. Kunitsa,  Ka Un Lao,  A. Laurent,  K. V. Lawler,  
 Joonho Lee,  D. Lefrancois,  S. Lehtola,  D. S. Levine,  Yi-Pei Li,  
 You-Sheng Lin,  Fenglai Liu,  E. Livshits,  A. Luenser,  P. Manohar,  
 E. Mansoor,  S. F. Manzer,  Shan-Ping Mao,  Yuezhi Mao,  N. Mardirossian,  
 A. V. Marenich,  T. Markovich,  L. A. Martinez-Martinez,  S. A. Maurer,  
 N. J. Mayhall,  S. C. McKenzie,  J.-M. Mewes,  A. F. Morrison,  
 J. W. Mullinax,  K. Nanda,  T. S. Nguyen-Beck,  R. Olivares-Amaya,  
 J. A. Parkhill,  T. M. Perrine,  F. Plasser,  P. Pokhilko,  S. Prager,  
 A. Prociuk,  E. Ramos,  D. R. Rehn,  F. Rob,  M. Schneider,  N. Sergueev,  
 S. M. Sharada,  S. Sharma,  D. W. Small,  T. Stauch,  T. Stein,  
 Yu-Chuan Su,  A. J. W. Thom,  A. Tkatchenko,  T. Tsuchimochi,  N. M. Tubman,  
 L. Vogt,  M. L. Vidal,  O. Vydrov,  M. A. Watson,  J. Wenzel,  
 M. de Wergifosse,  T. A. Wesolowski,  A. White,  J. Witte,  A. Yamada,  
 Jun Yang,  K. Yao,  S. Yeganeh,  S. R. Yost,  Zhi-Qiang You,  A. Zech,  
 Igor Ying Zhang,  Xing Zhang,  Yan Zhao,  Ying Zhu,  B. R. Brooks,  
 G. K. L. Chan,  C. J. Cramer,  M. S. Gordon,  W. J. Hehre,  A. Klamt,  
 M. W. Schmidt,  C. D. Sherrill,  D. G. Truhlar,  A. Aspuru-Guzik,  R. Baer,  
 A. T. Bell,  N. A. Besley,  Jeng-Da Chai,  A. E. DePrince, III,  
 R. A. DiStasio Jr.,  A. Dreuw,  B. D. Dunietz,  T. R. Furlani,  
 Chao-Ping Hsu,  Yousung Jung,  Jing Kong,  D. S. Lambrecht,  WanZhen Liang,  
 C. Ochsenfeld,  V. A. Rassolov,  L. V. Slipchenko,  J. E. Subotnik,  
 T. Van Voorhis,  J. M. Herbert,  A. I. Krylov,  P. M. W. Gill,  M. Head-Gordon

 Contributors to earlier versions of Q-Chem not listed above: 
 R. D. Adamson,  B. Austin,  J. Baker,  G. J. O. Beran,  K. Brandhorst,  
 S. T. Brown,  E. F. C. Byrd,  A. K. Chakraborty,  C.-L. Cheng,  
 Siu Hung Chien,  D. M. Chipman,  D. L. Crittenden,  H. Dachsel,  
 R. J. Doerksen,  A. D. Dutoi,  L. Fusti-Molnar,  W. A. Goddard III,  
 A. Golubeva-Zadorozhnaya,  S. R. Gwaltney,  G. Hawkins,  A. Heyden,  
 S. Hirata,  G. Kedziora,  F. J. Keil,  C. Kelley,  Jihan Kim,  R. A. King,  
 R. Z. Khaliullin,  P. P. Korambath,  W. Kurlancheek,  A. M. Lee,  M. S. Lee,  
 S. V. Levchenko,  Ching Yeh Lin,  D. Liotard,  R. C. Lochan,  I. Lotan,  
 P. E. Maslen,  N. Nair,  D. P. O'Neill,  D. Neuhauser,  E. Neuscamman,  
 C. M. Oana,  R. Olson,  B. Peters,  R. Peverati,  P. A. Pieniazek,  
 Y. M. Rhee,  J. Ritchie,  M. A. Rohrdanz,  E. Rosta,  N. J. Russ,  
 H. F. Schaefer III,  N. E. Schultz,  N. Shenvi,  A. C. Simmonett,  A. Sodt,  
 D. Stuck,  K. S. Thanthiriwatte,  V. Vanovschi,  Tao Wang,  A. Warshel,  
 C. F. Williams,  Q. Wu,  X. Xu,  W. Zhang

 Please cite Q-Chem as follows:
 Y. Shao et al., Mol. Phys. 113, 184-215 (2015)
 DOI: 10.1080/00268976.2014.952696

 Q-Chem 5.1.1 for Intel X86 EM64T Linux

 Parts of Q-Chem use Armadillo 8.300.2 (Tropical Shenanigans).
 http://arma.sourceforge.net/

 Q-Chem begins on Sat Nov 14 21:29:41 2020  

Host: n0101.mhg0
0

     Scratch files written to /local/scratch/users/yhljason/PO2_DSD-PBEPBE-D3_aug-cc-pcVTZ.inp20201114211618//
The previous job contains 0 fragments, simply inherited here
Input Ideriv = 0
Curr. Ideriv = -1
Max.  Ideriv = 0
Input Ideriv = 1
Curr. Ideriv = 0
Max.  Ideriv = 0

Checking the input file for inconsistencies... 	...done.

--------------------------------------------------------------
User input:
--------------------------------------------------------------
$molecule
read
$end

$rem
jobtype sp
exchange DSD-PBEPBE-D3
xc_grid 000099000590
basis aug-cc-pcVTZ

max_scf_cycles 200
thresh 14
scf_convergence 8
mem_total 128000
cc_memory 96000
cc_backend xm
mem_static 1500
symmetry false
sym_ignore true
scf_guess read
unrestricted false
scf_algorithm gdm
n_frozen_core 0
$end



$multipole_field
YY 0.0001
$end


--------------------------------------------------------------
 Adding empirical dispersion correction 
 ----------------------------------------------------------------
 Doing -D3(BJ) with
 s6 =   0.78000
 s8 =   0.00000
 a1 =   0.00000
 a2 =   6.10000
 -D3 energy without 3body term =     -0.0014651537 hartrees
 ----------------------------------------------------------------
             Standard Nuclear Orientation (Angstroms)
    I     Atom           X                Y                Z
 ----------------------------------------------------------------
    1      P       0.0000000000     0.0000000000     0.2879000000
    2      O       0.0000000000     1.3563000000    -0.2699000000
    3      O       0.0000000000    -1.3563000000    -0.2699000000
 ----------------------------------------------------------------
 Nuclear Repulsion Energy =    99.0848313607 hartrees
 There are       16 alpha and       15 beta electrons
 Requested basis set is aug-cc-pCVTZ
 There are 61 shells and 193 basis functions

 Total QAlloc Memory Limit 128000 MB
 Mega-Array Size      1467 MB
 MEM_STATIC part      1500 MB

                       Distance Matrix (Angstroms)
             P (  1)   O (  2)
   O (  2)  1.466523
   O (  3)  1.466523  2.712600
 
 Applying Cartesian multipole field
    Component          Value
    ---------          -----
     (0,2,0)        1.00000E-04
 Nucleus-field energy     =     0.0105106419 hartrees
 A cutoff of  1.0D-14 yielded   1808 shell pairs
 There are     18384 function pairs (     25621 Cartesian)
 
 -------------------------------------------------------
 OpenMP Integral Computing Module                       
 Release: version 1.0, May 2013, Q-Chem Inc. Pittsburgh 
 -------------------------------------------------------
 Integral Job Info:
 Integral job number is                      11
 Integral operator is                         1
 short-range coefficients                     0
 long-range coefficients              100000000
 Omega coefficients                           0
 if combine SR and LR in K                    0
 Integral screening is                        0
 Integral computing path is                   2
 max size of driver memory is            800000
 size of driver memory is                776718
 size of scratch memory is             29531563
 max col of scratch BK array              10000
 max len of scratch array in speh3          662
 max len of scratch index in speh4           32
 max int batch size is                      520
 min int batch size is                       52
 fixed nKL is                                31
 max L of basis functions is                  3
 order of int derivative is                   0
 number of shells is                         61
 number of basis is                         227
 number of cartesian basis is               227
 number of contracted shell pairs          1808
 number of primitive shell pairs           8014
 maxK2 (contraction) of shell pair          169
 max number of K2 of shell pair               1
 max number of CS2 of shell pair            217
 max number of PS2 of shell pair           1014
 mem total for path MDJ                  607252
 -------------------------------------------------------
 Smallest overlap matrix eigenvalue = 2.46E-04
 Guess MOs from SCF MO coefficient file
 Reading MOs from coefficient file
 Reading MOs from coefficient file
 A restricted hybrid HF-DFT SCF calculation will be
 performed using Geometric Direct Minimization
 Exchange:     0.6800 Hartree-Fock + 0.3200 PBE
 Correlation:  0.4900 PBE
 Using Euler-Maclaurin-Lebedev (99,590) quadrature formula
 Dispersion:   Grimme D3
 SCF converges when RMS gradient is below 1.0E-08
Using Q-Chem read-in guess as SCF_GUESS READ specified.

 using 8 threads for integral computing
 -------------------------------------------------------
 OpenMP Integral computing Module                
 Release: version 2.0, May 2017, Q-Chem Inc. Pleasanton 
 -------------------------------------------------------
TIMEINFO->: J/JK contribution 47.35 sec.
 -------------------------------------------------------
 OpenMP BLAS3 based DFT computing Module                
 Release: version 1.0, May 2013, Q-Chem Inc. Pittsburgh 
 -------------------------------------------------------
 ---------------------------------------
  Cycle       Energy        RMS Gradient
 ---------------------------------------
    1    -491.0499733036      5.93E-04 Normal BFGS step
TIMEINFO->: J/JK contribution 47.38 sec.
    2    -491.0499752536      4.79E-04 Normal BFGS step
TIMEINFO->: J/JK contribution 47.89 sec.
    3    -491.0499755792      1.67E-04 Normal BFGS step
TIMEINFO->: J/JK contribution 46.04 sec.
    4    -491.0499756233      7.70E-05 Normal BFGS step
TIMEINFO->: J/JK contribution 45.81 sec.
    5    -491.0499756428      3.17E-05 Normal BFGS step
TIMEINFO->: J/JK contribution 46.35 sec.
    6    -491.0499756435      9.46E-06 Normal BFGS step
TIMEINFO->: J/JK contribution 44.57 sec.
    7    -491.0499756437      4.48E-06 Normal BFGS step
TIMEINFO->: J/JK contribution 43.62 sec.
    8    -491.0499756437      9.62E-07 Normal BFGS step
TIMEINFO->: J/JK contribution 43.98 sec.
    9    -491.0499756437      3.32E-07 Normal BFGS step
TIMEINFO->: J/JK contribution 42.14 sec.
   GDM::WARNING energy changes are now smaller than effective accuracy.
   GDM::        calculation will continue, but THRESH should be increased
   GDM::        or SCF_CONVERGENCE decreased.
   GDM::        effective_thresh =   1.600000000000000E-010
   10    -491.0499756437      1.62E-07 Normal BFGS step
TIMEINFO->: J/JK contribution 41.56 sec.
   11    -491.0499756437      2.23E-08 Normal BFGS step
TIMEINFO->: J/JK contribution 41.15 sec.
   GDM::WARNING energy changes are now smaller than effective accuracy.
   GDM::        calculation will continue, but THRESH should be increased
   GDM::        or SCF_CONVERGENCE decreased.
   GDM::        effective_thresh =   1.600000000000000E-010
   12    -491.0499756437      4.20E-09 Convergence criterion met
 ---------------------------------------
 SCF time:  CPU 660.82 s  wall 83.41 s
 SCF   energy in the final basis set = -491.04997564
 Total energy in the final basis set = -491.04997564
 
 Components of the MP2 correlation energy:
        aaaa  correlation energy =        -0.0199381545 au
        abab  correlation energy =        -0.4774200513 au
        bbbb  correlation energy =        -0.0197334500 au
        non-Brillouin singles    =        -0.0027108729 au

 Total  MP2   correlation energy =                    -0.51980253 au
        MP2         total energy =                  -491.56977817 au
 
 --------------------------------------------------------------
 
                    Orbital Energies (a.u.)
 --------------------------------------------------------------
 
 Alpha MOs
 -- Occupied --
-78.924 -20.043 -20.043  -7.251  -5.249  -5.246  -5.251  -1.294
 -1.244  -0.702  -0.592  -0.573  -0.554  -0.475  -0.484  -0.415
 -- Virtual --
 -0.027   0.037   0.042   0.051   0.061   0.109   0.139   0.146
  0.155   0.174   0.178   0.188   0.205   0.209   0.216   0.275
  0.295   0.308   0.328   0.363   0.402   0.431   0.474   0.488
  0.529   0.542   0.549   0.550   0.565   0.640   0.659   0.697
  0.710   0.713   0.778   0.790   0.793   0.811   0.824   0.828
  0.859   0.880   0.918   0.954   0.954   0.966   1.194   1.199
  1.204   1.203   1.292   1.350   1.402   1.415   1.481   1.518
  1.535   1.636   1.635   1.649   1.698   1.706   1.717   1.755
  1.920   1.968   2.008   2.024   2.026   2.045   2.118   2.176
  2.181   2.242   2.247   2.278   2.290   2.307   2.338   2.340
  2.357   2.423   2.438   2.508   2.633   2.641   2.679   2.781
  2.948   2.962   3.070   3.246   3.419   3.597   4.111   4.137
  4.205   4.419   4.965   4.973   5.652   5.764   6.305   6.315
  6.316   6.317   6.378   6.444   6.456   6.462   6.535   6.537
  6.545   6.566   6.590   6.606   6.847   6.870   6.870   6.871
  6.967   7.041   7.046   7.324   7.345   7.364   7.425   7.437
  7.642   7.971   8.361   9.968  10.125  10.999  12.715  25.767
 25.785  25.813  25.979  26.622  26.679  26.758  26.759  26.772
 26.782  26.783  26.814  26.819  28.384  28.558  33.109  33.114
 33.255  33.453  33.674  41.755  41.955  42.819  43.460  43.467
 43.470  43.470  43.539  43.544  43.567  43.660  43.668  43.681
 72.218 137.469 137.484 137.504 137.624 138.125 138.195 148.460
148.716
 
 Beta MOs
 -- Occupied --
-78.920 -20.036 -20.036  -7.244  -5.246  -5.241  -5.239  -1.269
 -1.218  -0.661  -0.548  -0.537  -0.543  -0.469  -0.462
 -- Virtual --
 -0.104   0.009   0.046   0.050   0.054   0.067   0.124   0.145
  0.148   0.156   0.180   0.193   0.193   0.208   0.215   0.221
  0.285   0.299   0.318   0.337   0.386   0.414   0.451   0.492
  0.500   0.535   0.550   0.559   0.564   0.574   0.646   0.661
  0.716   0.716   0.722   0.782   0.794   0.799   0.819   0.840
  0.836   0.867   0.890   0.924   0.957   0.961   0.972   1.206
  1.202   1.206   1.227   1.303   1.355   1.424   1.437   1.486
  1.525   1.539   1.646   1.657   1.675   1.706   1.720   1.726
  1.767   1.941   1.975   2.012   2.028   2.028   2.055   2.131
  2.180   2.185   2.245   2.255   2.296   2.299   2.323   2.345
  2.345   2.370   2.434   2.449   2.512   2.642   2.643   2.691
  2.794   2.957   2.966   3.080   3.258   3.427   3.604   4.115
  4.151   4.210   4.426   4.976   4.990   5.662   5.775   6.307
  6.319   6.322   6.322   6.388   6.451   6.466   6.470   6.543
  6.548   6.555   6.571   6.601   6.612   6.856   6.875   6.878
  6.879   6.976   7.053   7.061   7.334   7.354   7.379   7.443
  7.450   7.645   7.977   8.368   9.974  10.142  11.003  12.721
 25.770  25.792  25.816  25.984  26.633  26.686  26.759  26.761
 26.773  26.783  26.785  26.817  26.821  28.390  28.564  33.115
 33.121  33.257  33.459  33.677  41.758  41.962  42.821  43.465
 43.470  43.473  43.473  43.547  43.548  43.573  43.668  43.675
 43.689  72.222 137.470 137.486 137.505 137.626 138.128 138.197
148.463 148.718
 --------------------------------------------------------------
 
          Ground-State Mulliken Net Atomic Charges

     Atom                 Charge (a.u.)
  ----------------------------------------
      1 P                     1.343485
      2 O                    -0.671743
      3 O                    -0.671743
  ----------------------------------------
  Sum of atomic charges =    -0.000000

 -----------------------------------------------------------------
                    Cartesian Multipole Moments
 -----------------------------------------------------------------
    Charge (ESU x 10^10)
                -0.0000
    Dipole Moment (Debye)
         X       0.0000      Y      -0.0000      Z       1.8261
       Tot       1.8261
    Quadrupole Moments (Debye-Ang)
        XX     -20.5440     XY      -0.0000     YY     -29.6349
        XZ       0.0000     YZ       0.0000     ZZ     -21.7317
    Octopole Moments (Debye-Ang^2)
       XXX      -0.0000    XXY       0.0000    XYY      -0.0000
       YYY      -0.0000    XXZ       0.1827    XYZ       0.0000
       YYZ       1.1155    XZZ       0.0000    YZZ       0.0000
       ZZZ      -0.7280
    Hexadecapole Moments (Debye-Ang^3)
      XXXX     -20.1268   XXXY      -0.0000   XXYY     -28.6231
      XYYY      -0.0000   YYYY    -160.1004   XXXZ       0.0000
      XXYZ      -0.0000   XYYZ      -0.0000   YYYZ       0.0000
      XXZZ      -8.8670   XYZZ      -0.0000   YYZZ     -30.5702
      XZZZ       0.0000   YZZZ      -0.0000   ZZZZ     -34.2833
 -----------------------------------------------------------------
Archival summary:
1\1\n0101.mhg0\SP\ROProcedureUnspecified\BasisUnspecified\12(2)\yhljason\SatNov1421:33:032020SatNov1421:33:032020\0\\#,ROProcedureUnspecified,BasisUnspecified,\\0,2\P\O,1,1.46652\O,1,1.46652,2,135.289\\\@

 Total job time:  202.64s(wall), 1570.34s(cpu) 
 Sat Nov 14 21:33:03 2020

        *************************************************************
        *                                                           *
        *  Thank you very much for using Q-Chem.  Have a nice day.  *
        *                                                           *
        *************************************************************


 
User input: 5 of 7 
 
Q-Chem Developer Version!
                  Welcome to Q-Chem
     A Quantum Leap Into The Future Of Chemistry


 Q-Chem 5.1, Q-Chem, Inc., Pleasanton, CA (2018)

 Yihan Shao,  Zhengting Gan,  E. Epifanovsky,  A. T. B. Gilbert,  M. Wormit,  
 J. Kussmann,  A. W. Lange,  A. Behn,  Jia Deng,  Xintian Feng,  D. Ghosh,  
 M. Goldey,  P. R. Horn,  L. D. Jacobson,  I. Kaliman,  T. Kus,  A. Landau,  
 Jie Liu,  E. I. Proynov,  R. M. Richard,  R. P. Steele,  E. J. Sundstrom,  
 H. L. Woodcock III,  P. M. Zimmerman,  D. Zuev,  B. Albrecht,  E. Alguire,  
 S. A. Baeppler,  D. Barton,  Z. Benda,  Y. A. Bernard,  E. J. Berquist,  
 K. B. Bravaya,  H. Burton,  D. Casanova,  Chun-Min Chang,  Yunqing Chen,  
 A. Chien,  K. D. Closser,  M. P. Coons,  S. Coriani,  S. Dasgupta,  
 A. L. Dempwolff,  M. Diedenhofen,  Hainam Do,  R. G. Edgar,  Po-Tung Fang,  
 S. Faraji,  S. Fatehi,  Qingguo Feng,  K. D. Fenk,  J. Fosso-Tande,  
 Qinghui Ge,  A. Ghysels,  G. Gidofalvi,  J. Gomes,  J. Gonthier,  A. Gunina,  
 D. Hait,  M. W. D. Hanson-Heine,  P. H. P. Harbach,  A. W. Hauser,  
 J. E. Herr,  E. G. Hohenstein,  Z. C. Holden,  Kerwin Hui,  B. C. Huynh,  
 T.-C. Jagau,  Hyunjun Ji,  B. Kaduk,  K. Khistyaev,  Jaehoon Kim,  
 P. Klunzinger,  K. Koh,  D. Kosenkov,  L. Koulias,  T. Kowalczyk,  
 C. M. Krauter,  A. Kunitsa,  Ka Un Lao,  A. Laurent,  K. V. Lawler,  
 Joonho Lee,  D. Lefrancois,  S. Lehtola,  D. S. Levine,  Yi-Pei Li,  
 You-Sheng Lin,  Fenglai Liu,  E. Livshits,  A. Luenser,  P. Manohar,  
 E. Mansoor,  S. F. Manzer,  Shan-Ping Mao,  Yuezhi Mao,  N. Mardirossian,  
 A. V. Marenich,  T. Markovich,  L. A. Martinez-Martinez,  S. A. Maurer,  
 N. J. Mayhall,  S. C. McKenzie,  J.-M. Mewes,  A. F. Morrison,  
 J. W. Mullinax,  K. Nanda,  T. S. Nguyen-Beck,  R. Olivares-Amaya,  
 J. A. Parkhill,  T. M. Perrine,  F. Plasser,  P. Pokhilko,  S. Prager,  
 A. Prociuk,  E. Ramos,  D. R. Rehn,  F. Rob,  M. Schneider,  N. Sergueev,  
 S. M. Sharada,  S. Sharma,  D. W. Small,  T. Stauch,  T. Stein,  
 Yu-Chuan Su,  A. J. W. Thom,  A. Tkatchenko,  T. Tsuchimochi,  N. M. Tubman,  
 L. Vogt,  M. L. Vidal,  O. Vydrov,  M. A. Watson,  J. Wenzel,  
 M. de Wergifosse,  T. A. Wesolowski,  A. White,  J. Witte,  A. Yamada,  
 Jun Yang,  K. Yao,  S. Yeganeh,  S. R. Yost,  Zhi-Qiang You,  A. Zech,  
 Igor Ying Zhang,  Xing Zhang,  Yan Zhao,  Ying Zhu,  B. R. Brooks,  
 G. K. L. Chan,  C. J. Cramer,  M. S. Gordon,  W. J. Hehre,  A. Klamt,  
 M. W. Schmidt,  C. D. Sherrill,  D. G. Truhlar,  A. Aspuru-Guzik,  R. Baer,  
 A. T. Bell,  N. A. Besley,  Jeng-Da Chai,  A. E. DePrince, III,  
 R. A. DiStasio Jr.,  A. Dreuw,  B. D. Dunietz,  T. R. Furlani,  
 Chao-Ping Hsu,  Yousung Jung,  Jing Kong,  D. S. Lambrecht,  WanZhen Liang,  
 C. Ochsenfeld,  V. A. Rassolov,  L. V. Slipchenko,  J. E. Subotnik,  
 T. Van Voorhis,  J. M. Herbert,  A. I. Krylov,  P. M. W. Gill,  M. Head-Gordon

 Contributors to earlier versions of Q-Chem not listed above: 
 R. D. Adamson,  B. Austin,  J. Baker,  G. J. O. Beran,  K. Brandhorst,  
 S. T. Brown,  E. F. C. Byrd,  A. K. Chakraborty,  C.-L. Cheng,  
 Siu Hung Chien,  D. M. Chipman,  D. L. Crittenden,  H. Dachsel,  
 R. J. Doerksen,  A. D. Dutoi,  L. Fusti-Molnar,  W. A. Goddard III,  
 A. Golubeva-Zadorozhnaya,  S. R. Gwaltney,  G. Hawkins,  A. Heyden,  
 S. Hirata,  G. Kedziora,  F. J. Keil,  C. Kelley,  Jihan Kim,  R. A. King,  
 R. Z. Khaliullin,  P. P. Korambath,  W. Kurlancheek,  A. M. Lee,  M. S. Lee,  
 S. V. Levchenko,  Ching Yeh Lin,  D. Liotard,  R. C. Lochan,  I. Lotan,  
 P. E. Maslen,  N. Nair,  D. P. O'Neill,  D. Neuhauser,  E. Neuscamman,  
 C. M. Oana,  R. Olson,  B. Peters,  R. Peverati,  P. A. Pieniazek,  
 Y. M. Rhee,  J. Ritchie,  M. A. Rohrdanz,  E. Rosta,  N. J. Russ,  
 H. F. Schaefer III,  N. E. Schultz,  N. Shenvi,  A. C. Simmonett,  A. Sodt,  
 D. Stuck,  K. S. Thanthiriwatte,  V. Vanovschi,  Tao Wang,  A. Warshel,  
 C. F. Williams,  Q. Wu,  X. Xu,  W. Zhang

 Please cite Q-Chem as follows:
 Y. Shao et al., Mol. Phys. 113, 184-215 (2015)
 DOI: 10.1080/00268976.2014.952696

 Q-Chem 5.1.1 for Intel X86 EM64T Linux

 Parts of Q-Chem use Armadillo 8.300.2 (Tropical Shenanigans).
 http://arma.sourceforge.net/

 Q-Chem begins on Sat Nov 14 21:33:04 2020  

Host: n0101.mhg0
0

     Scratch files written to /local/scratch/users/yhljason/PO2_DSD-PBEPBE-D3_aug-cc-pcVTZ.inp20201114211618//
The previous job contains 0 fragments, simply inherited here
Input Ideriv = 0
Curr. Ideriv = -1
Max.  Ideriv = 0
Input Ideriv = 1
Curr. Ideriv = 0
Max.  Ideriv = 0

Checking the input file for inconsistencies... 	...done.

--------------------------------------------------------------
User input:
--------------------------------------------------------------
$molecule
read
$end

$rem
jobtype sp
exchange DSD-PBEPBE-D3
xc_grid 000099000590
basis aug-cc-pcVTZ

max_scf_cycles 200
thresh 14
scf_convergence 8
mem_total 128000
cc_memory 96000
cc_backend xm
mem_static 1500
symmetry false
sym_ignore true
scf_guess read
unrestricted false
scf_algorithm gdm
n_frozen_core 0
$end



$multipole_field
YY -0.0001
$end


--------------------------------------------------------------
 Adding empirical dispersion correction 
 ----------------------------------------------------------------
 Doing -D3(BJ) with
 s6 =   0.78000
 s8 =   0.00000
 a1 =   0.00000
 a2 =   6.10000
 -D3 energy without 3body term =     -0.0014651537 hartrees
 ----------------------------------------------------------------
             Standard Nuclear Orientation (Angstroms)
    I     Atom           X                Y                Z
 ----------------------------------------------------------------
    1      P       0.0000000000     0.0000000000     0.2879000000
    2      O       0.0000000000     1.3563000000    -0.2699000000
    3      O       0.0000000000    -1.3563000000    -0.2699000000
 ----------------------------------------------------------------
 Nuclear Repulsion Energy =    99.0848313607 hartrees
 There are       16 alpha and       15 beta electrons
 Requested basis set is aug-cc-pCVTZ
 There are 61 shells and 193 basis functions

 Total QAlloc Memory Limit 128000 MB
 Mega-Array Size      1467 MB
 MEM_STATIC part      1500 MB

                       Distance Matrix (Angstroms)
             P (  1)   O (  2)
   O (  2)  1.466523
   O (  3)  1.466523  2.712600
 
 Applying Cartesian multipole field
    Component          Value
    ---------          -----
     (0,2,0)       -1.00000E-04
 Nucleus-field energy     =    -0.0105106419 hartrees
 A cutoff of  1.0D-14 yielded   1808 shell pairs
 There are     18384 function pairs (     25621 Cartesian)
 
 -------------------------------------------------------
 OpenMP Integral Computing Module                       
 Release: version 1.0, May 2013, Q-Chem Inc. Pittsburgh 
 -------------------------------------------------------
 Integral Job Info:
 Integral job number is                      11
 Integral operator is                         1
 short-range coefficients                     0
 long-range coefficients              100000000
 Omega coefficients                           0
 if combine SR and LR in K                    0
 Integral screening is                        0
 Integral computing path is                   2
 max size of driver memory is            800000
 size of driver memory is                776718
 size of scratch memory is             29531563
 max col of scratch BK array              10000
 max len of scratch array in speh3          662
 max len of scratch index in speh4           32
 max int batch size is                      520
 min int batch size is                       52
 fixed nKL is                                31
 max L of basis functions is                  3
 order of int derivative is                   0
 number of shells is                         61
 number of basis is                         227
 number of cartesian basis is               227
 number of contracted shell pairs          1808
 number of primitive shell pairs           8014
 maxK2 (contraction) of shell pair          169
 max number of K2 of shell pair               1
 max number of CS2 of shell pair            217
 max number of PS2 of shell pair           1014
 mem total for path MDJ                  607252
 -------------------------------------------------------
 Smallest overlap matrix eigenvalue = 2.46E-04
 Guess MOs from SCF MO coefficient file
 Reading MOs from coefficient file
 Reading MOs from coefficient file
 A restricted hybrid HF-DFT SCF calculation will be
 performed using Geometric Direct Minimization
 Exchange:     0.6800 Hartree-Fock + 0.3200 PBE
 Correlation:  0.4900 PBE
 Using Euler-Maclaurin-Lebedev (99,590) quadrature formula
 Dispersion:   Grimme D3
 SCF converges when RMS gradient is below 1.0E-08
Using Q-Chem read-in guess as SCF_GUESS READ specified.

 using 8 threads for integral computing
 -------------------------------------------------------
 OpenMP Integral computing Module                
 Release: version 2.0, May 2017, Q-Chem Inc. Pleasanton 
 -------------------------------------------------------
TIMEINFO->: J/JK contribution 49.36 sec.
[...]
  7.450   7.645   7.977   8.368   9.974  10.142  11.003  12.721
 25.770  25.793  25.816  25.985  26.633  26.687  26.760  26.761
 26.774  26.784  26.785  26.817  26.822  28.390  28.565  33.115
 33.121  33.258  33.460  33.677  41.758  41.963  42.821  43.465
 43.471  43.474  43.473  43.548  43.548  43.574  43.669  43.676
 43.689  72.223 137.471 137.487 137.505 137.626 138.129 138.198
148.463 148.718
 --------------------------------------------------------------
 
          Ground-State Mulliken Net Atomic Charges

     Atom                 Charge (a.u.)
  ----------------------------------------
      1 P                     1.340270
      2 O                    -0.670135
      3 O                    -0.670135
  ----------------------------------------
  Sum of atomic charges =    -0.000000

 -----------------------------------------------------------------
                    Cartesian Multipole Moments
 -----------------------------------------------------------------
    Charge (ESU x 10^10)
                -0.0000
    Dipole Moment (Debye)
         X      -0.0000      Y       0.0000      Z       1.8184
       Tot       1.8184
    Quadrupole Moments (Debye-Ang)
        XX     -20.5466     XY       0.0000     YY     -29.5792
        XZ       0.0000     YZ      -0.0000     ZZ     -21.7526
    Octopole Moments (Debye-Ang^2)
       XXX      -0.0000    XXY      -0.0000    XYY      -0.0000
       YYY       0.0000    XXZ       0.1772    XYZ      -0.0000
       YYZ       1.1048    XZZ       0.0000    YZZ      -0.0000
       ZZZ      -0.7577
    Hexadecapole Moments (Debye-Ang^3)
      XXXX     -20.1340   XXXY       0.0000   XXYY     -28.5960
      XYYY       0.0000   YYYY    -159.7554   XXXZ       0.0000
      XXYZ       0.0000   XYYZ      -0.0000   YYYZ      -0.0000
      XXZZ      -8.8816   XYZZ       0.0000   YYZZ     -30.5591
      XZZZ       0.0000   YZZZ       0.0000   ZZZZ     -34.3814
 -----------------------------------------------------------------
Archival summary:
1\1\n0101.mhg0\SP\ROProcedureUnspecified\BasisUnspecified\12(2)\yhljason\SatNov1421:40:022020SatNov1421:40:022020\0\\#,ROProcedureUnspecified,BasisUnspecified,\\0,2\P\O,1,1.46652\O,1,1.46652,2,135.289\\\@

 Total job time:  202.28s(wall), 1566.45s(cpu) 
 Sat Nov 14 21:40:02 2020

        *************************************************************
        *                                                           *
        *  Thank you very much for using Q-Chem.  Have a nice day.  *
        *                                                           *
        *************************************************************


 
User input: 7 of 7 
 
Q-Chem Developer Version!
                  Welcome to Q-Chem
     A Quantum Leap Into The Future Of Chemistry


 Q-Chem 5.1, Q-Chem, Inc., Pleasanton, CA (2018)

 Yihan Shao,  Zhengting Gan,  E. Epifanovsky,  A. T. B. Gilbert,  M. Wormit,  
 J. Kussmann,  A. W. Lange,  A. Behn,  Jia Deng,  Xintian Feng,  D. Ghosh,  
 M. Goldey,  P. R. Horn,  L. D. Jacobson,  I. Kaliman,  T. Kus,  A. Landau,  
 Jie Liu,  E. I. Proynov,  R. M. Richard,  R. P. Steele,  E. J. Sundstrom,  
 H. L. Woodcock III,  P. M. Zimmerman,  D. Zuev,  B. Albrecht,  E. Alguire,  
 S. A. Baeppler,  D. Barton,  Z. Benda,  Y. A. Bernard,  E. J. Berquist,  
 K. B. Bravaya,  H. Burton,  D. Casanova,  Chun-Min Chang,  Yunqing Chen,  
 A. Chien,  K. D. Closser,  M. P. Coons,  S. Coriani,  S. Dasgupta,  
 A. L. Dempwolff,  M. Diedenhofen,  Hainam Do,  R. G. Edgar,  Po-Tung Fang,  
 S. Faraji,  S. Fatehi,  Qingguo Feng,  K. D. Fenk,  J. Fosso-Tande,  
 Qinghui Ge,  A. Ghysels,  G. Gidofalvi,  J. Gomes,  J. Gonthier,  A. Gunina,  
 D. Hait,  M. W. D. Hanson-Heine,  P. H. P. Harbach,  A. W. Hauser,  
 J. E. Herr,  E. G. Hohenstein,  Z. C. Holden,  Kerwin Hui,  B. C. Huynh,  
 T.-C. Jagau,  Hyunjun Ji,  B. Kaduk,  K. Khistyaev,  Jaehoon Kim,  
 P. Klunzinger,  K. Koh,  D. Kosenkov,  L. Koulias,  T. Kowalczyk,  
 C. M. Krauter,  A. Kunitsa,  Ka Un Lao,  A. Laurent,  K. V. Lawler,  
 Joonho Lee,  D. Lefrancois,  S. Lehtola,  D. S. Levine,  Yi-Pei Li,  
 You-Sheng Lin,  Fenglai Liu,  E. Livshits,  A. Luenser,  P. Manohar,  
 E. Mansoor,  S. F. Manzer,  Shan-Ping Mao,  Yuezhi Mao,  N. Mardirossian,  
 A. V. Marenich,  T. Markovich,  L. A. Martinez-Martinez,  S. A. Maurer,  
 N. J. Mayhall,  S. C. McKenzie,  J.-M. Mewes,  A. F. Morrison,  
 J. W. Mullinax,  K. Nanda,  T. S. Nguyen-Beck,  R. Olivares-Amaya,  
 J. A. Parkhill,  T. M. Perrine,  F. Plasser,  P. Pokhilko,  S. Prager,  
 A. Prociuk,  E. Ramos,  D. R. Rehn,  F. Rob,  M. Schneider,  N. Sergueev,  
 S. M. Sharada,  S. Sharma,  D. W. Small,  T. Stauch,  T. Stein,  
 Yu-Chuan Su,  A. J. W. Thom,  A. Tkatchenko,  T. Tsuchimochi,  N. M. Tubman,  
 L. Vogt,  M. L. Vidal,  O. Vydrov,  M. A. Watson,  J. Wenzel,  
 M. de Wergifosse,  T. A. Wesolowski,  A. White,  J. Witte,  A. Yamada,  
 Jun Yang,  K. Yao,  S. Yeganeh,  S. R. Yost,  Zhi-Qiang You,  A. Zech,  
 Igor Ying Zhang,  Xing Zhang,  Yan Zhao,  Ying Zhu,  B. R. Brooks,  
 G. K. L. Chan,  C. J. Cramer,  M. S. Gordon,  W. J. Hehre,  A. Klamt,  
 M. W. Schmidt,  C. D. Sherrill,  D. G. Truhlar,  A. Aspuru-Guzik,  R. Baer,  
 A. T. Bell,  N. A. Besley,  Jeng-Da Chai,  A. E. DePrince, III,  
 R. A. DiStasio Jr.,  A. Dreuw,  B. D. Dunietz,  T. R. Furlani,  
 Chao-Ping Hsu,  Yousung Jung,  Jing Kong,  D. S. Lambrecht,  WanZhen Liang,  
 C. Ochsenfeld,  V. A. Rassolov,  L. V. Slipchenko,  J. E. Subotnik,  
 T. Van Voorhis,  J. M. Herbert,  A. I. Krylov,  P. M. W. Gill,  M. Head-Gordon

 Contributors to earlier versions of Q-Chem not listed above: 
 R. D. Adamson,  B. Austin,  J. Baker,  G. J. O. Beran,  K. Brandhorst,  
 S. T. Brown,  E. F. C. Byrd,  A. K. Chakraborty,  C.-L. Cheng,  
 Siu Hung Chien,  D. M. Chipman,  D. L. Crittenden,  H. Dachsel,  
 R. J. Doerksen,  A. D. Dutoi,  L. Fusti-Molnar,  W. A. Goddard III,  
 A. Golubeva-Zadorozhnaya,  S. R. Gwaltney,  G. Hawkins,  A. Heyden,  
 S. Hirata,  G. Kedziora,  F. J. Keil,  C. Kelley,  Jihan Kim,  R. A. King,  
 R. Z. Khaliullin,  P. P. Korambath,  W. Kurlancheek,  A. M. Lee,  M. S. Lee,  
 S. V. Levchenko,  Ching Yeh Lin,  D. Liotard,  R. C. Lochan,  I. Lotan,  
 P. E. Maslen,  N. Nair,  D. P. O'Neill,  D. Neuhauser,  E. Neuscamman,  
 C. M. Oana,  R. Olson,  B. Peters,  R. Peverati,  P. A. Pieniazek,  
 Y. M. Rhee,  J. Ritchie,  M. A. Rohrdanz,  E. Rosta,  N. J. Russ,  
 H. F. Schaefer III,  N. E. Schultz,  N. Shenvi,  A. C. Simmonett,  A. Sodt,  
 D. Stuck,  K. S. Thanthiriwatte,  V. Vanovschi,  Tao Wang,  A. Warshel,  
 C. F. Williams,  Q. Wu,  X. Xu,  W. Zhang

 Please cite Q-Chem as follows:
 Y. Shao et al., Mol. Phys. 113, 184-215 (2015)
 DOI: 10.1080/00268976.2014.952696

 Q-Chem 5.1.1 for Intel X86 EM64T Linux

 Parts of Q-Chem use Armadillo 8.300.2 (Tropical Shenanigans).
 http://arma.sourceforge.net/

 Q-Chem begins on Sat Nov 14 21:40:02 2020  

Host: n0101.mhg0
0

     Scratch files written to /local/scratch/users/yhljason/PO2_DSD-PBEPBE-D3_aug-cc-pcVTZ.inp20201114211618//
The previous job contains 0 fragments, simply inherited here
Input Ideriv = 0
Curr. Ideriv = -1
Max.  Ideriv = 0
Input Ideriv = 1
Curr. Ideriv = 0
Max.  Ideriv = 0

Checking the input file for inconsistencies... 	...done.

--------------------------------------------------------------
User input:
--------------------------------------------------------------
$molecule
read
$end

$rem
jobtype sp
exchange DSD-PBEPBE-D3
xc_grid 000099000590
basis aug-cc-pcVTZ

max_scf_cycles 200
thresh 14
scf_convergence 8
mem_total 128000
cc_memory 96000
cc_backend xm
mem_static 1500
symmetry false
sym_ignore true
scf_guess read
unrestricted false
scf_algorithm gdm
n_frozen_core 0
$end



$multipole_field
ZZ -0.0001
$end

--------------------------------------------------------------
 Adding empirical dispersion correction 
 ----------------------------------------------------------------
 Doing -D3(BJ) with
 s6 =   0.78000
 s8 =   0.00000
 a1 =   0.00000
 a2 =   6.10000
 -D3 energy without 3body term =     -0.0014651537 hartrees
 ----------------------------------------------------------------
             Standard Nuclear Orientation (Angstroms)
    I     Atom           X                Y                Z
 ----------------------------------------------------------------
    1      P       0.0000000000     0.0000000000     0.2879000000
    2      O       0.0000000000     1.3563000000    -0.2699000000
    3      O       0.0000000000    -1.3563000000    -0.2699000000
 ----------------------------------------------------------------
 Nuclear Repulsion Energy =    99.0848313607 hartrees
 There are       16 alpha and       15 beta electrons
 Requested basis set is aug-cc-pCVTZ
 There are 61 shells and 193 basis functions

 Total QAlloc Memory Limit 128000 MB
 Mega-Array Size      1467 MB
 MEM_STATIC part      1500 MB

                       Distance Matrix (Angstroms)
             P (  1)   O (  2)
   O (  2)  1.466523
   O (  3)  1.466523  2.712600
 
 Applying Cartesian multipole field
    Component          Value
    ---------          -----
     (0,0,2)       -1.00000E-04
 Nucleus-field energy     =    -0.0008602096 hartrees
 A cutoff of  1.0D-14 yielded   1808 shell pairs
 There are     18384 function pairs (     25621 Cartesian)
 
 -------------------------------------------------------
 OpenMP Integral Computing Module                       
 Release: version 1.0, May 2013, Q-Chem Inc. Pittsburgh 
 -------------------------------------------------------
 Integral Job Info:
 Integral job number is                      11
 Integral operator is                         1
 short-range coefficients                     0
 long-range coefficients              100000000
 Omega coefficients                           0
 if combine SR and LR in K                    0
 Integral screening is                        0
 Integral computing path is                   2
 max size of driver memory is            800000
 size of driver memory is                776718
 size of scratch memory is             29531563
 max col of scratch BK array              10000
 max len of scratch array in speh3          662
 max len of scratch index in speh4           32
 max int batch size is                      520
 min int batch size is                       52
 fixed nKL is                                31
 max L of basis functions is                  3
 order of int derivative is                   0
 number of shells is                         61
 number of basis is                         227
 number of cartesian basis is               227
 number of contracted shell pairs          1808
 number of primitive shell pairs           8014
 maxK2 (contraction) of shell pair          169
 max number of K2 of shell pair               1
 max number of CS2 of shell pair            217
 max number of PS2 of shell pair           1014
 mem total for path MDJ                  607252
 -------------------------------------------------------
 Smallest overlap matrix eigenvalue = 2.46E-04
 Guess MOs from SCF MO coefficient file
 Reading MOs from coefficient file
 Reading MOs from coefficient file
 A restricted hybrid HF-DFT SCF calculation will be
 performed using Geometric Direct Minimization
 Exchange:     0.6800 Hartree-Fock + 0.3200 PBE
 Correlation:  0.4900 PBE
 Using Euler-Maclaurin-Lebedev (99,590) quadrature formula
 Dispersion:   Grimme D3
 SCF converges when RMS gradient is below 1.0E-08
Using Q-Chem read-in guess as SCF_GUESS READ specified.

 using 8 threads for integral computing
 -------------------------------------------------------
 OpenMP Integral computing Module                
 Release: version 2.0, May 2017, Q-Chem Inc. Pleasanton 
 -------------------------------------------------------
TIMEINFO->: J/JK contribution 48.50 sec.
 -------------------------------------------------------
 OpenMP BLAS3 based DFT computing Module                
 Release: version 1.0, May 2013, Q-Chem Inc. Pittsburgh 
 -------------------------------------------------------
 ---------------------------------------
  Cycle       Energy        RMS Gradient
 ---------------------------------------
    1    -491.0461563971      1.17E-03 Normal BFGS step
TIMEINFO->: J/JK contribution 46.59 sec.
    2    -491.0461586905      5.83E-04 Normal BFGS step
TIMEINFO->: J/JK contribution 45.33 sec.
    3    -491.0461591126      1.80E-04 Normal BFGS step
TIMEINFO->: J/JK contribution 46.23 sec.
    4    -491.0461591816      1.44E-04 Normal BFGS step
TIMEINFO->: J/JK contribution 44.98 sec.
    5    -491.0461592059      2.45E-05 Normal BFGS step
TIMEINFO->: J/JK contribution 44.78 sec.
    6    -491.0461592074      1.44E-05 Normal BFGS step
TIMEINFO->: J/JK contribution 44.79 sec.
    7    -491.0461592079      5.85E-06 Normal BFGS step
TIMEINFO->: J/JK contribution 43.20 sec.
    8    -491.0461592079      1.50E-06 Normal BFGS step
TIMEINFO->: J/JK contribution 42.94 sec.
    9    -491.0461592079      5.76E-07 Normal BFGS step
TIMEINFO->: J/JK contribution 41.62 sec.
   10    -491.0461592079      1.32E-07 Normal BFGS step
TIMEINFO->: J/JK contribution 41.34 sec.
   GDM::WARNING energy changes are now smaller than effective accuracy.
   GDM::        calculation will continue, but THRESH should be increased
   GDM::        or SCF_CONVERGENCE decreased.
   GDM::        effective_thresh =   1.600000000000000E-010
   11    -491.0461592079      3.16E-08 Normal BFGS step
TIMEINFO->: J/JK contribution 39.66 sec.
   GDM::WARNING energy changes are now smaller than effective accuracy.
   GDM::        calculation will continue, but THRESH should be increased
   GDM::        or SCF_CONVERGENCE decreased.
   GDM::        effective_thresh =   1.600000000000000E-010
   12    -491.0461592079      5.20E-09 Convergence criterion met
 ---------------------------------------
 SCF time:  CPU 649.45 s  wall 81.99 s
 SCF   energy in the final basis set = -491.04615921
 Total energy in the final basis set = -491.04615921
 
 Components of the MP2 correlation energy:
        aaaa  correlation energy =        -0.0199399822 au
        abab  correlation energy =        -0.4774713245 au
        bbbb  correlation energy =        -0.0197372203 au
        non-Brillouin singles    =        -0.0027150374 au

 Total  MP2   correlation energy =                    -0.51986356 au
        MP2         total energy =                  -491.56602277 au
 
 --------------------------------------------------------------
 
                    Orbital Energies (a.u.)
 --------------------------------------------------------------
 
 Alpha MOs
 -- Occupied --
-78.923 -20.042 -20.042  -7.250  -5.248  -5.245  -5.250  -1.293
 -1.243  -0.701  -0.591  -0.572  -0.553  -0.474  -0.483  -0.414
 -- Virtual --
 -0.026   0.039   0.047   0.056   0.063   0.111   0.143   0.150
  0.158   0.176   0.181   0.191   0.207   0.211   0.220   0.277
  0.296   0.311   0.331   0.365   0.404   0.433   0.475   0.490
  0.531   0.544   0.551   0.551   0.567   0.642   0.660   0.698
  0.711   0.715   0.780   0.792   0.795   0.813   0.826   0.830
  0.862   0.882   0.920   0.955   0.955   0.968   1.195   1.200
  1.205   1.204   1.294   1.352   1.403   1.416   1.482   1.520
  1.536   1.638   1.636   1.650   1.699   1.707   1.718   1.757
  1.921   1.969   2.010   2.026   2.028   2.046   2.119   2.177
  2.182   2.243   2.248   2.279   2.291   2.308   2.339   2.341
  2.358   2.424   2.439   2.509   2.634   2.642   2.681   2.783
  2.949   2.963   3.071   3.248   3.420   3.599   4.112   4.138
  4.206   4.420   4.967   4.974   5.653   5.765   6.306   6.316
  6.318   6.318   6.380   6.445   6.457   6.463   6.537   6.539
  6.546   6.567   6.591   6.607   6.848   6.871   6.871   6.872
  6.968   7.042   7.047   7.325   7.346   7.365   7.426   7.438
  7.643   7.972   8.362   9.969  10.126  11.000  12.716  25.768
 25.786  25.814  25.980  26.623  26.680  26.759  26.760  26.773
 26.783  26.784  26.815  26.820  28.385  28.559  33.110  33.115
 33.256  33.454  33.675  41.757  41.957  42.820  43.461  43.468
 43.471  43.471  43.540  43.545  43.568  43.661  43.669  43.682
 72.219 137.470 137.485 137.505 137.625 138.126 138.196 148.462
148.717
 
 Beta MOs
 -- Occupied --
-78.919 -20.035 -20.035  -7.243  -5.245  -5.240  -5.238  -1.268
 -1.217  -0.659  -0.547  -0.536  -0.542  -0.468  -0.460
 -- Virtual --
 -0.103   0.010   0.048   0.054   0.059   0.069   0.126   0.149
  0.152   0.159   0.181   0.196   0.196   0.211   0.217   0.225
  0.288   0.301   0.321   0.340   0.388   0.416   0.453   0.493
  0.501   0.537   0.551   0.561   0.565   0.576   0.648   0.662
  0.718   0.717   0.724   0.783   0.795   0.801   0.821   0.842
  0.838   0.870   0.892   0.926   0.959   0.962   0.974   1.207
  1.204   1.208   1.229   1.305   1.357   1.425   1.438   1.487
  1.526   1.540   1.647   1.658   1.676   1.707   1.721   1.727
  1.769   1.942   1.976   2.014   2.029   2.029   2.056   2.132
  2.181   2.186   2.246   2.256   2.297   2.301   2.324   2.347
  2.346   2.371   2.435   2.450   2.513   2.643   2.645   2.692
  2.796   2.958   2.968   3.081   3.260   3.429   3.605   4.116
  4.152   4.211   4.427   4.977   4.991   5.663   5.776   6.309
  6.320   6.323   6.323   6.389   6.453   6.467   6.471   6.544
  6.549   6.556   6.572   6.602   6.614   6.857   6.876   6.879
  6.880   6.977   7.054   7.062   7.335   7.355   7.380   7.444
  7.451   7.646   7.978   8.369   9.975  10.143  11.004  12.722
 25.771  25.793  25.817  25.985  26.634  26.687  26.760  26.762
 26.774  26.784  26.786  26.818  26.822  28.391  28.565  33.116
 33.122  33.258  33.460  33.678  41.759  41.963  42.822  43.466
 43.471  43.474  43.474  43.548  43.549  43.574  43.669  43.676
 43.690  72.223 137.471 137.488 137.506 137.627 138.129 138.198
148.464 148.719
 --------------------------------------------------------------
 
          Ground-State Mulliken Net Atomic Charges

     Atom                 Charge (a.u.)
  ----------------------------------------
      1 P                     1.341180
      2 O                    -0.670590
      3 O                    -0.670590
  ----------------------------------------
  Sum of atomic charges =    -0.000000

 -----------------------------------------------------------------
                    Cartesian Multipole Moments
 -----------------------------------------------------------------
    Charge (ESU x 10^10)
                -0.0000
    Dipole Moment (Debye)
         X       0.0000      Y       0.0000      Z       1.8248
       Tot       1.8248
    Quadrupole Moments (Debye-Ang)
        XX     -20.5442     XY      -0.0000     YY     -29.5833
        XZ       0.0000     YZ      -0.0000     ZZ     -21.7149
    Octopole Moments (Debye-Ang^2)
       XXX       0.0000    XXY      -0.0000    XYY      -0.0000
       YYY       0.0000    XXZ       0.1816    XYZ       0.0000
       YYZ       1.1027    XZZ       0.0000    YZZ      -0.0000
       ZZZ      -0.7189
    Hexadecapole Moments (Debye-Ang^3)
      XXXX     -20.1221   XXXY       0.0000   XXYY     -28.5898
      XYYY      -0.0000   YYYY    -159.7621   XXXZ       0.0000
      XXYZ       0.0000   XYYZ      -0.0000   YYYZ      -0.0000
      XXZZ      -8.8549   XYZZ      -0.0000   YYZZ     -30.5173
      XZZZ       0.0000   YZZZ       0.0000   ZZZZ     -34.1994
 -----------------------------------------------------------------
Archival summary:
1\1\n0101.mhg0\SP\ROProcedureUnspecified\BasisUnspecified\12(2)\yhljason\SatNov1421:43:242020SatNov1421:43:242020\0\\#,ROProcedureUnspecified,BasisUnspecified,\\0,2\P\O,1,1.46652\O,1,1.46652,2,135.289\\\@

 Total job time:  201.74s(wall), 1562.55s(cpu) 
 Sat Nov 14 21:43:24 2020

        *************************************************************
        *                                                           *
        *  Thank you very much for using Q-Chem.  Have a nice day.  *
        *                                                           *
        *************************************************************


