Q-Chem Developer Version!
                  Welcome to Q-Chem
     A Quantum Leap Into The Future Of Chemistry


 Q-Chem 5.1, Q-Chem, Inc., Pleasanton, CA (2018)

 Yihan Shao,  Zhengting Gan,  E. Epifanovsky,  A. T. B. Gilbert,  M. Wormit,  
 J. Kussmann,  A. W. Lange,  A. Behn,  Jia Deng,  Xintian Feng,  D. Ghosh,  
 M. Goldey,  P. R. Horn,  L. D. Jacobson,  I. Kaliman,  T. Kus,  A. Landau,  
 Jie Liu,  E. I. Proynov,  R. M. Richard,  R. P. Steele,  E. J. Sundstrom,  
 H. L. Woodcock III,  P. M. Zimmerman,  D. Zuev,  B. Albrecht,  E. Alguire,  
 S. A. Baeppler,  D. Barton,  Z. Benda,  Y. A. Bernard,  E. J. Berquist,  
 K. B. Bravaya,  H. Burton,  D. Casanova,  Chun-Min Chang,  Yunqing Chen,  
 A. Chien,  K. D. Closser,  M. P. Coons,  S. Coriani,  S. Dasgupta,  
 A. L. Dempwolff,  M. Diedenhofen,  Hainam Do,  R. G. Edgar,  Po-Tung Fang,  
 S. Faraji,  S. Fatehi,  Qingguo Feng,  K. D. Fenk,  J. Fosso-Tande,  
 Qinghui Ge,  A. Ghysels,  G. Gidofalvi,  J. Gomes,  J. Gonthier,  A. Gunina,  
 D. Hait,  M. W. D. Hanson-Heine,  P. H. P. Harbach,  A. W. Hauser,  
 J. E. Herr,  E. G. Hohenstein,  Z. C. Holden,  Kerwin Hui,  B. C. Huynh,  
 T.-C. Jagau,  Hyunjun Ji,  B. Kaduk,  K. Khistyaev,  Jaehoon Kim,  
 P. Klunzinger,  K. Koh,  D. Kosenkov,  L. Koulias,  T. Kowalczyk,  
 C. M. Krauter,  A. Kunitsa,  Ka Un Lao,  A. Laurent,  K. V. Lawler,  
 Joonho Lee,  D. Lefrancois,  S. Lehtola,  D. S. Levine,  Yi-Pei Li,  
 You-Sheng Lin,  Fenglai Liu,  E. Livshits,  A. Luenser,  P. Manohar,  
 E. Mansoor,  S. F. Manzer,  Shan-Ping Mao,  Yuezhi Mao,  N. Mardirossian,  
 A. V. Marenich,  T. Markovich,  L. A. Martinez-Martinez,  S. A. Maurer,  
 N. J. Mayhall,  S. C. McKenzie,  J.-M. Mewes,  A. F. Morrison,  
 J. W. Mullinax,  K. Nanda,  T. S. Nguyen-Beck,  R. Olivares-Amaya,  
 J. A. Parkhill,  T. M. Perrine,  F. Plasser,  P. Pokhilko,  S. Prager,  
 A. Prociuk,  E. Ramos,  D. R. Rehn,  F. Rob,  M. Schneider,  N. Sergueev,  
 S. M. Sharada,  S. Sharma,  D. W. Small,  T. Stauch,  T. Stein,  
 Yu-Chuan Su,  A. J. W. Thom,  A. Tkatchenko,  T. Tsuchimochi,  N. M. Tubman,  
 L. Vogt,  M. L. Vidal,  O. Vydrov,  M. A. Watson,  J. Wenzel,  
 M. de Wergifosse,  T. A. Wesolowski,  A. White,  J. Witte,  A. Yamada,  
 Jun Yang,  K. Yao,  S. Yeganeh,  S. R. Yost,  Zhi-Qiang You,  A. Zech,  
 Igor Ying Zhang,  Xing Zhang,  Yan Zhao,  Ying Zhu,  B. R. Brooks,  
 G. K. L. Chan,  C. J. Cramer,  M. S. Gordon,  W. J. Hehre,  A. Klamt,  
 M. W. Schmidt,  C. D. Sherrill,  D. G. Truhlar,  A. Aspuru-Guzik,  R. Baer,  
 A. T. Bell,  N. A. Besley,  Jeng-Da Chai,  A. E. DePrince, III,  
 R. A. DiStasio Jr.,  A. Dreuw,  B. D. Dunietz,  T. R. Furlani,  
 Chao-Ping Hsu,  Yousung Jung,  Jing Kong,  D. S. Lambrecht,  WanZhen Liang,  
 C. Ochsenfeld,  V. A. Rassolov,  L. V. Slipchenko,  J. E. Subotnik,  
 T. Van Voorhis,  J. M. Herbert,  A. I. Krylov,  P. M. W. Gill,  M. Head-Gordon

 Contributors to earlier versions of Q-Chem not listed above: 
 R. D. Adamson,  B. Austin,  J. Baker,  G. J. O. Beran,  K. Brandhorst,  
 S. T. Brown,  E. F. C. Byrd,  A. K. Chakraborty,  C.-L. Cheng,  
 Siu Hung Chien,  D. M. Chipman,  D. L. Crittenden,  H. Dachsel,  
 R. J. Doerksen,  A. D. Dutoi,  L. Fusti-Molnar,  W. A. Goddard III,  
 A. Golubeva-Zadorozhnaya,  S. R. Gwaltney,  G. Hawkins,  A. Heyden,  
 S. Hirata,  G. Kedziora,  F. J. Keil,  C. Kelley,  Jihan Kim,  R. A. King,  
 R. Z. Khaliullin,  P. P. Korambath,  W. Kurlancheek,  A. M. Lee,  M. S. Lee,  
 S. V. Levchenko,  Ching Yeh Lin,  D. Liotard,  R. C. Lochan,  I. Lotan,  
 P. E. Maslen,  N. Nair,  D. P. O'Neill,  D. Neuhauser,  E. Neuscamman,  
 C. M. Oana,  R. Olson,  B. Peters,  R. Peverati,  P. A. Pieniazek,  
 Y. M. Rhee,  J. Ritchie,  M. A. Rohrdanz,  E. Rosta,  N. J. Russ,  
 H. F. Schaefer III,  N. E. Schultz,  N. Shenvi,  A. C. Simmonett,  A. Sodt,  
 D. Stuck,  K. S. Thanthiriwatte,  V. Vanovschi,  Tao Wang,  A. Warshel,  
 C. F. Williams,  Q. Wu,  X. Xu,  W. Zhang

 Please cite Q-Chem as follows:
 Y. Shao et al., Mol. Phys. 113, 184-215 (2015)
 DOI: 10.1080/00268976.2014.952696

 Q-Chem 5.1.1 for Intel X86 EM64T Linux

 Parts of Q-Chem use Armadillo 8.300.2 (Tropical Shenanigans).
 http://arma.sourceforge.net/

 Q-Chem begins on Sat Oct 31 04:34:41 2020  

Host: n0048.mhg0
0

     Scratch files written to /local/scratch/users/yhljason/BS_M11_aug-pc-4.inp20201031025114//
Input Ideriv = 2
Curr. Ideriv = -1
Max.  Ideriv = 2
Input Ideriv = 1
Curr. Ideriv = 2
Max.  Ideriv = 1

Checking the input file for inconsistencies... 	...done.

--------------------------------------------------------------
User input:
--------------------------------------------------------------
$molecule
0 2
B1      0.0000  0.0000  0.0000
S2      0.0000  0.0000  1.6092
$end

$rem
jobtype sp
method M11
xc_grid 000099000590
basis aug-pc-4
max_scf_cycles 200
thresh 14
scf_convergence 8
scf_algorithm gdm
symmetry false
sym_ignore true
unrestricted True
gen_scfman true
internal_stability_iter 15
internal_stability_davidson_iter 200
mem_total 64000
mem_static 1500
n_frozen_core 0
$end



--------------------------------------------------------------
 ----------------------------------------------------------------
             Standard Nuclear Orientation (Angstroms)
    I     Atom           X                Y                Z
 ----------------------------------------------------------------
    1      B       0.0000000000     0.0000000000     0.0000000000
    2      S       0.0000000000     0.0000000000     1.6092000000
 ----------------------------------------------------------------
 Nuclear Repulsion Energy =    26.3075918867 hartrees
 There are       11 alpha and       10 beta electrons
 Requested basis set is aug-pc-4
 There are 64 shells and 286 basis functions

 Total QAlloc Memory Limit  64000 MB
 Mega-Array Size      1467 MB
 MEM_STATIC part      1500 MB

                       Distance Matrix (Angstroms)
             B (  1)
   S (  2)  1.609200
 
 A cutoff of  1.0D-14 yielded   2075 shell pairs
 There are     41813 function pairs (     82265 Cartesian)
 
 -------------------------------------------------------
 OpenMP Integral Computing Module                       
 Release: version 1.0, May 2013, Q-Chem Inc. Pittsburgh 
 -------------------------------------------------------
 Integral Job Info:
 Integral job number is                      11
 Integral operator is                         1
 short-range coefficients              42800000
 long-range coefficients              100000000
 Omega coefficients                         250
 if combine SR and LR in K                    1
 Integral screening is                        0
 Integral computing path is                   2
 max size of driver memory is           6400000
 size of driver memory is               5498286
 size of scratch memory is             28418842
 max col of scratch BK array             194481
 max len of scratch array in speh3         5572
 max len of scratch index in speh4           72
 max int batch size is                      520
 min int batch size is                       52
 fixed nKL is                                 7
 max L of basis functions is                  5
 order of int derivative is                   0
 number of shells is                         64
 number of basis is                         400
 number of cartesian basis is               400
 number of contracted shell pairs          2075
 number of primitive shell pairs           9185
 maxK2 (contraction) of shell pair          225
 max number of K2 of shell pair               1
 max number of CS2 of shell pair            170
 max number of PS2 of shell pair            528
 mem total for path MDJ                  956866
 -------------------------------------------------------
 Smallest overlap matrix eigenvalue = 4.58E-06

 Scale SEOQF with 1.000000e-01/1.000000e-01/1.000000e-01

 Standard Electronic Orientation quadrupole field applied
 Nucleus-field energy     =    -0.0000000044 hartrees
 Guess from superposition of atomic densities
 Warning:  Energy on first SCF cycle will be non-variational
 SAD guess density has 21.000000 electrons

 -----------------------------------------------------------------------
  General SCF calculation program by
  Eric Jon Sundstrom, Paul Horn, Yuezhi Mao, Dmitri Zuev, Alec White,
  David Stuck, Shaama M.S., Shane Yost, Joonho Lee, David Small,
  Daniel Levine, Susi Lehtola, Hugh Burton, Evgeny Epifanovsky
 -----------------------------------------------------------------------
 Exchange:     0.4280 Hartree-Fock + 1.0000 M11 + LR-HF
 Correlation:  1.0000 M11
 Using Euler-Maclaurin-Lebedev (99,590) quadrature formula
Running Object-Oriented UKS (UHF)
performing a single roothaan step with Fock from read density so that orbitals are available to all algorithms
energy of the guess density (C=0) -423.119741340168
We will preform up to 15 macro iterations over saddle points until a stable solution is found
Energy prior to optimization (guess energy) = -422.936458241302
Begin Timing: Total SCF Calculation
Begin Timing: SCF Single Stationary Point Calculation
begin iterations for algorithm: GDM          
the SCF tolerance is set to 1.00e-08
    1    -422.9364582413      1.30e-01     00000  Descent step
    2    -422.9432075611      1.36e-01     00000  Normal BFGS step
    3    -422.9746813527      3.18e-02     00000  Normal BFGS step
    4    -422.9765229910      1.79e-02     00000  Normal BFGS step
    5    -422.9774355543      3.32e-03     00000  Normal BFGS step
    6    -422.9775221972      2.29e-03     00000  Normal BFGS step
    7    -422.9775732567      1.06e-03     00000  Normal BFGS step
    8    -422.9775840849      4.67e-04     00000  Normal BFGS step
    9    -422.9775872686      1.19e-04     00000  Normal BFGS step
   10    -422.9775874327      1.98e-05     00000  Normal BFGS step
   11    -422.9775874395      3.78e-06     00000  Normal BFGS step
   12    -422.9775874397      1.06e-06     00000  Normal BFGS step
   13    -422.9775874397      2.83e-07     00000  Normal BFGS step
   14    -422.9775874397      8.59e-08     00000  Normal BFGS step
   15    -422.9775874397      1.91e-08     00000  Normal BFGS step
   16    -422.9775874397      1.25e-08     00000  Normal BFGS step
   17    -422.9775874397      4.92e-09     00000 Convergence criterion met
Timing for Single Stationary Point: 2390.00s (wall), 18987.84s (cpu)
Begin Timing: Stability
===================================================
Beginning Test for Internal Stability
===================================================
generating davidson guess vectors based on koopmans excitations
    1      6.74e-01     00000 Davidson Iteration
    2      4.04e-01     00000 Davidson Iteration
    3      7.89e-02     00000 Davidson Iteration
    4      4.35e-02     00000 Davidson Iteration
    5      1.81e-02     00000 Davidson Iteration
    6      4.92e-03     00000 Davidson Iteration
    7      4.60e-03     00000 Davidson Iteration
    8      1.45e-03     00000 Davidson Iteration
    9      4.36e-04     00000 Davidson Iteration
   10      1.20e-04     00000 Davidson Iteration
   11      6.18e-05     00000 Davidson Converged
converged_eigenvalues
   0.1945
   0.1945
Threshold for negative eigenvalues: -1.0e-05
solution was a local minimum (stable)
===================================================
End Test for Internal Stability
===================================================
Our SCF solution is stable!
Timing for Total SCF: 5804.00s (wall), 46106.51s (cpu)
 Total energy in the final basis set =     -422.9775874397
<S^2> =          0.768240002
    ==================================================
              The end of Object-Oriented SCFman       
    ==================================================
 
 --------------------------------------------------------------
 
                    Orbital Energies (a.u.)
 --------------------------------------------------------------
 
 Alpha MOs
 -- Occupied --
-89.419  -8.108  -7.086  -6.100  -6.097  -6.097  -0.870  -0.546
 -0.414  -0.409  -0.409
 -- Virtual --
 -0.004   0.003   0.003   0.004   0.008   0.008   0.027   0.034
  0.034   0.045   0.045   0.056   0.058   0.058   0.073   0.082
  0.082   0.089   0.112   0.112   0.116   0.116   0.125   0.139
  0.139   0.160   0.172   0.172   0.184   0.184   0.184   0.184
  0.184   0.195   0.195   0.211   0.212   0.212   0.215   0.215
  0.234   0.234   0.241   0.265   0.279   0.279   0.281   0.303
  0.303   0.341   0.341   0.343   0.343   0.344   0.344   0.352
  0.352   0.373   0.373   0.377   0.384   0.384   0.385   0.385
  0.391   0.391   0.405   0.408   0.408   0.424   0.434   0.434
  0.457   0.457   0.470   0.512   0.512   0.518   0.518   0.520
  0.556   0.556   0.584   0.584   0.594   0.623   0.623   0.638
  0.668   0.668   0.671   0.671   0.673   0.673   0.683   0.683
  0.726   0.727   0.727   0.742   0.742   0.762   0.762   0.816
  0.826   0.850   0.850   0.945   0.945   0.992   0.992   1.041
  1.159   1.208   1.224   1.224   1.260   1.260   1.380   1.380
  1.385   1.385   1.445   1.445   1.485   1.486   1.486   1.519
  1.642   1.642   1.680   1.697   1.697   1.708   1.708   1.847
  1.946   1.946   2.154   2.154   2.170   2.377   2.377   2.532
  2.586   2.586   2.642   2.642   2.773   2.773   2.854   2.854
  2.903   3.038   3.038   3.117   3.214   3.214   3.219   3.219
  3.282   3.282   3.356   3.356   3.423   3.439   3.439   3.469
  3.508   3.508   3.652   3.694   3.694   3.709   3.709   3.875
  3.875   3.916   3.922   3.922   4.028   4.043   4.043   4.060
  4.060   4.733   4.949   4.949   5.124   5.124   5.144   5.144
  5.316   5.316   5.645   5.645   5.672   5.832   5.832   5.873
  5.873   5.984   6.152   6.152   6.780   7.348   7.434   7.435
  7.584   7.584   8.013   8.177   8.177   8.203   8.203   8.451
  8.452   8.681   8.681   8.732   9.150   9.150   9.212   9.212
  9.227   9.227   9.325   9.325   9.393   9.393   9.495   9.495
  9.664   9.835   9.835  10.032  10.032  10.065  10.161  10.161
 10.216  10.216  10.683  10.683  10.789  10.789  10.858  10.929
 10.929  11.776  11.776  11.920  11.920  12.035  12.845  12.845
 13.730  17.093  17.093  17.352  17.352  18.049  18.694  20.199
 20.199  20.362  20.362  21.226  30.274  62.386  62.386  62.525
 62.525  63.014  77.369
 
 Beta MOs
 -- Occupied --
-89.419  -8.108  -7.068  -6.098  -6.098  -6.097  -0.858  -0.512
 -0.406  -0.406
 -- Virtual --
 -0.084  -0.021  -0.010  -0.010  -0.003   0.014   0.014   0.018
  0.033   0.035   0.035   0.036   0.036   0.058   0.058   0.059
  0.064   0.064   0.085   0.091   0.091   0.108   0.108   0.116
  0.127   0.127   0.139   0.161   0.161   0.167   0.176   0.176
  0.181   0.181   0.182   0.182   0.186   0.193   0.193   0.203
  0.203   0.205   0.205   0.226   0.244   0.244   0.253   0.268
  0.268   0.288   0.313   0.313   0.316   0.316   0.324   0.324
  0.329   0.329   0.346   0.362   0.362   0.364   0.364   0.369
  0.378   0.378   0.381   0.381   0.392   0.392   0.423   0.435
  0.435   0.440   0.440   0.477   0.505   0.505   0.512   0.512
  0.520   0.554   0.554   0.577   0.577   0.608   0.623   0.623
  0.636   0.665   0.665   0.666   0.666   0.681   0.681   0.683
  0.683   0.719   0.727   0.727   0.739   0.739   0.753   0.753
  0.820   0.842   0.861   0.861   0.940   0.940   0.991   0.991
  1.055   1.162   1.208   1.216   1.216   1.266   1.266   1.388
  1.388   1.405   1.405   1.448   1.448   1.503   1.503   1.515
  1.536   1.668   1.668   1.733   1.733   1.736   1.737   1.737
  1.868   1.971   1.971   2.141   2.141   2.200   2.376   2.376
  2.536   2.584   2.584   2.616   2.616   2.766   2.766   2.867
  2.867   2.943   3.062   3.062   3.133   3.194   3.194   3.310
  3.310   3.326   3.326   3.355   3.355   3.463   3.463   3.463
  3.509   3.544   3.544   3.671   3.810   3.810   3.810   3.810
  3.887   3.887   3.954   3.954   4.003   4.178   4.178   4.180
  4.233   4.233   4.879   5.012   5.012   5.089   5.089   5.095
  5.096   5.303   5.303   5.629   5.629   5.667   5.835   5.835
  5.870   5.870   5.974   6.180   6.180   6.842   7.453   7.466
  7.466   7.647   7.647   8.068   8.145   8.145   8.195   8.195
  8.445   8.446   8.676   8.676   8.764   9.135   9.135   9.182
  9.183   9.242   9.242   9.408   9.408   9.533   9.533   9.544
  9.544   9.734   9.992   9.992  10.190  10.197  10.197  10.219
 10.219  10.383  10.383  10.824  10.824  10.910  10.910  11.063
 11.093  11.093  11.768  11.768  11.932  11.932  12.096  12.894
 12.894  13.767  17.084  17.084  17.355  17.355  18.066  18.696
 20.190  20.190  20.388  20.388  21.235  30.270  62.383  62.383
 62.527  62.527  63.016  77.411
 --------------------------------------------------------------
 
          Ground-State Mulliken Net Atomic Charges

     Atom                 Charge (a.u.)    Spin (a.u.)
  --------------------------------------------------------
      1 B                     2.583485       1.306153
      2 S                    -2.583485      -0.306153
  --------------------------------------------------------
  Sum of atomic charges =    -0.000000
  Sum of spin   charges =     1.000000

 -----------------------------------------------------------------
                    Cartesian Multipole Moments
 -----------------------------------------------------------------
    Charge (ESU x 10^10)
                -0.0000
    Dipole Moment (Debye)
         X      -0.0000      Y       0.0000      Z      -0.8917
       Tot       0.8917
    Quadrupole Moments (Debye-Ang)
        XX     -19.2155     XY      -0.0000     YY     -19.2155
        XZ      -0.0000     YZ       0.0000     ZZ     -18.6456
    Octopole Moments (Debye-Ang^2)
       XXX       0.0000    XXY       0.0000    XYY       0.0000
       YYY      -0.0000    XXZ     -21.4664    XYZ      -0.0000
       YYZ     -21.4664    XZZ      -0.0000    YZZ      -0.0000
       ZZZ     -58.2078
    Hexadecapole Moments (Debye-Ang^3)
      XXXX     -27.5806   XXXY      -0.0000   XXYY      -9.1935
      XYYY      -0.0000   YYYY     -27.5806   XXXZ       0.0000
      XXYZ      -0.0000   XYYZ       0.0000   YYYZ      -0.0000
      XXZZ     -42.3354   XYZZ      -0.0000   YYZZ     -42.3354
      XZZZ      -0.0000   YZZZ      -0.0000   ZZZZ    -213.2190
 -----------------------------------------------------------------
Archival summary:
1\1\n0048.mhg0\SP\ProcedureUnspecified\BasisUnspecified\11(2)\yhljason\SatOct3106:14:252020SatOct3106:14:252020\0\\#,ProcedureUnspecified,BasisUnspecified,\\0,2\B\S,1,1.6092\\\@

 Total job time:  5984.03s(wall), 47506.05s(cpu) 
 Sat Oct 31 06:14:25 2020

        *************************************************************
        *                                                           *
        *  Thank you very much for using Q-Chem.  Have a nice day.  *
        *                                                           *
        *************************************************************


