Q-Chem Developer Version!
                  Welcome to Q-Chem
     A Quantum Leap Into The Future Of Chemistry


 Q-Chem 5.1, Q-Chem, Inc., Pleasanton, CA (2018)

 Yihan Shao,  Zhengting Gan,  E. Epifanovsky,  A. T. B. Gilbert,  M. Wormit,  
 J. Kussmann,  A. W. Lange,  A. Behn,  Jia Deng,  Xintian Feng,  D. Ghosh,  
 M. Goldey,  P. R. Horn,  L. D. Jacobson,  I. Kaliman,  T. Kus,  A. Landau,  
 Jie Liu,  E. I. Proynov,  R. M. Richard,  R. P. Steele,  E. J. Sundstrom,  
 H. L. Woodcock III,  P. M. Zimmerman,  D. Zuev,  B. Albrecht,  E. Alguire,  
 S. A. Baeppler,  D. Barton,  Z. Benda,  Y. A. Bernard,  E. J. Berquist,  
 K. B. Bravaya,  H. Burton,  D. Casanova,  Chun-Min Chang,  Yunqing Chen,  
 A. Chien,  K. D. Closser,  M. P. Coons,  S. Coriani,  S. Dasgupta,  
 A. L. Dempwolff,  M. Diedenhofen,  Hainam Do,  R. G. Edgar,  Po-Tung Fang,  
 S. Faraji,  S. Fatehi,  Qingguo Feng,  K. D. Fenk,  J. Fosso-Tande,  
 Qinghui Ge,  A. Ghysels,  G. Gidofalvi,  J. Gomes,  J. Gonthier,  A. Gunina,  
 D. Hait,  M. W. D. Hanson-Heine,  P. H. P. Harbach,  A. W. Hauser,  
 J. E. Herr,  E. G. Hohenstein,  Z. C. Holden,  Kerwin Hui,  B. C. Huynh,  
 T.-C. Jagau,  Hyunjun Ji,  B. Kaduk,  K. Khistyaev,  Jaehoon Kim,  
 P. Klunzinger,  K. Koh,  D. Kosenkov,  L. Koulias,  T. Kowalczyk,  
 C. M. Krauter,  A. Kunitsa,  Ka Un Lao,  A. Laurent,  K. V. Lawler,  
 Joonho Lee,  D. Lefrancois,  S. Lehtola,  D. S. Levine,  Yi-Pei Li,  
 You-Sheng Lin,  Fenglai Liu,  E. Livshits,  A. Luenser,  P. Manohar,  
 E. Mansoor,  S. F. Manzer,  Shan-Ping Mao,  Yuezhi Mao,  N. Mardirossian,  
 A. V. Marenich,  T. Markovich,  L. A. Martinez-Martinez,  S. A. Maurer,  
 N. J. Mayhall,  S. C. McKenzie,  J.-M. Mewes,  A. F. Morrison,  
 J. W. Mullinax,  K. Nanda,  T. S. Nguyen-Beck,  R. Olivares-Amaya,  
 J. A. Parkhill,  T. M. Perrine,  F. Plasser,  P. Pokhilko,  S. Prager,  
 A. Prociuk,  E. Ramos,  D. R. Rehn,  F. Rob,  M. Schneider,  N. Sergueev,  
 S. M. Sharada,  S. Sharma,  D. W. Small,  T. Stauch,  T. Stein,  
 Yu-Chuan Su,  A. J. W. Thom,  A. Tkatchenko,  T. Tsuchimochi,  N. M. Tubman,  
 L. Vogt,  M. L. Vidal,  O. Vydrov,  M. A. Watson,  J. Wenzel,  
 M. de Wergifosse,  T. A. Wesolowski,  A. White,  J. Witte,  A. Yamada,  
 Jun Yang,  K. Yao,  S. Yeganeh,  S. R. Yost,  Zhi-Qiang You,  A. Zech,  
 Igor Ying Zhang,  Xing Zhang,  Yan Zhao,  Ying Zhu,  B. R. Brooks,  
 G. K. L. Chan,  C. J. Cramer,  M. S. Gordon,  W. J. Hehre,  A. Klamt,  
 M. W. Schmidt,  C. D. Sherrill,  D. G. Truhlar,  A. Aspuru-Guzik,  R. Baer,  
 A. T. Bell,  N. A. Besley,  Jeng-Da Chai,  A. E. DePrince, III,  
 R. A. DiStasio Jr.,  A. Dreuw,  B. D. Dunietz,  T. R. Furlani,  
 Chao-Ping Hsu,  Yousung Jung,  Jing Kong,  D. S. Lambrecht,  WanZhen Liang,  
 C. Ochsenfeld,  V. A. Rassolov,  L. V. Slipchenko,  J. E. Subotnik,  
 T. Van Voorhis,  J. M. Herbert,  A. I. Krylov,  P. M. W. Gill,  M. Head-Gordon

 Contributors to earlier versions of Q-Chem not listed above: 
 R. D. Adamson,  B. Austin,  J. Baker,  G. J. O. Beran,  K. Brandhorst,  
 S. T. Brown,  E. F. C. Byrd,  A. K. Chakraborty,  C.-L. Cheng,  
 Siu Hung Chien,  D. M. Chipman,  D. L. Crittenden,  H. Dachsel,  
 R. J. Doerksen,  A. D. Dutoi,  L. Fusti-Molnar,  W. A. Goddard III,  
 A. Golubeva-Zadorozhnaya,  S. R. Gwaltney,  G. Hawkins,  A. Heyden,  
 S. Hirata,  G. Kedziora,  F. J. Keil,  C. Kelley,  Jihan Kim,  R. A. King,  
 R. Z. Khaliullin,  P. P. Korambath,  W. Kurlancheek,  A. M. Lee,  M. S. Lee,  
 S. V. Levchenko,  Ching Yeh Lin,  D. Liotard,  R. C. Lochan,  I. Lotan,  
 P. E. Maslen,  N. Nair,  D. P. O'Neill,  D. Neuhauser,  E. Neuscamman,  
 C. M. Oana,  R. Olson,  B. Peters,  R. Peverati,  P. A. Pieniazek,  
 Y. M. Rhee,  J. Ritchie,  M. A. Rohrdanz,  E. Rosta,  N. J. Russ,  
 H. F. Schaefer III,  N. E. Schultz,  N. Shenvi,  A. C. Simmonett,  A. Sodt,  
 D. Stuck,  K. S. Thanthiriwatte,  V. Vanovschi,  Tao Wang,  A. Warshel,  
 C. F. Williams,  Q. Wu,  X. Xu,  W. Zhang

 Please cite Q-Chem as follows:
 Y. Shao et al., Mol. Phys. 113, 184-215 (2015)
 DOI: 10.1080/00268976.2014.952696

 Q-Chem 5.1.1 for Intel X86 EM64T Linux

 Parts of Q-Chem use Armadillo 8.300.2 (Tropical Shenanigans).
 http://arma.sourceforge.net/

 Q-Chem begins on Sat Oct 31 04:39:23 2020  

Host: n0078.mhg0
0

     Scratch files written to /local/scratch/users/yhljason/HBO_M11_aug-pc-4.inp20201031025119//
Input Ideriv = 2
Curr. Ideriv = -1
Max.  Ideriv = 2
Input Ideriv = 1
Curr. Ideriv = 2
Max.  Ideriv = 1

Checking the input file for inconsistencies... 	...done.

--------------------------------------------------------------
User input:
--------------------------------------------------------------
$molecule
0 1
B1      0.0000  0.0000  1.1660
H2      0.0000  0.0000  0.0000
O3      0.0000  0.0000  2.3660
$end

$rem
jobtype sp
method M11
xc_grid 000099000590
basis aug-pc-4
max_scf_cycles 200
thresh 14
scf_convergence 8
scf_algorithm gdm
symmetry false
sym_ignore true
unrestricted True
gen_scfman true
internal_stability_iter 15
internal_stability_davidson_iter 200
mem_total 64000
mem_static 1500
n_frozen_core 0
$end



--------------------------------------------------------------
 ----------------------------------------------------------------
             Standard Nuclear Orientation (Angstroms)
    I     Atom           X                Y                Z
 ----------------------------------------------------------------
    1      B       0.0000000000     0.0000000000     1.1660000000
    2      H       0.0000000000     0.0000000000     0.0000000000
    3      O       0.0000000000     0.0000000000     2.3660000000
 ----------------------------------------------------------------
 Nuclear Repulsion Energy =    21.6977114340 hartrees
 There are        7 alpha and        7 beta electrons
 Requested basis set is aug-pc-4
 There are 90 shells and 378 basis functions

 Total QAlloc Memory Limit  64000 MB
 Mega-Array Size      1467 MB
 MEM_STATIC part      1500 MB

                       Distance Matrix (Angstroms)
             B (  1)   H (  2)
   H (  2)  1.166000
   O (  3)  1.200000  2.366000
 
 A cutoff of  1.0D-14 yielded   4040 shell pairs
 There are     72110 function pairs (    135665 Cartesian)
 
 -------------------------------------------------------
 OpenMP Integral Computing Module                       
 Release: version 1.0, May 2013, Q-Chem Inc. Pittsburgh 
 -------------------------------------------------------
 Integral Job Info:
 Integral job number is                      11
 Integral operator is                         1
 short-range coefficients              42800000
 long-range coefficients              100000000
 Omega coefficients                         250
 if combine SR and LR in K                    1
 Integral screening is                        0
 Integral computing path is                   2
 max size of driver memory is           6400000
 size of driver memory is               5498286
 size of scratch memory is             28955960
 max col of scratch BK array             194481
 max len of scratch array in speh3         5572
 max len of scratch index in speh4           72
 max int batch size is                      520
 min int batch size is                       52
 fixed nKL is                                24
 max L of basis functions is                  5
 order of int derivative is                   0
 number of shells is                         90
 number of basis is                         517
 number of cartesian basis is               517
 number of contracted shell pairs          4040
 number of primitive shell pairs           8720
 maxK2 (contraction) of shell pair          121
 max number of K2 of shell pair               1
 max number of CS2 of shell pair            437
 max number of PS2 of shell pair            451
 mem total for path MDJ                  998666
 -------------------------------------------------------
 Smallest overlap matrix eigenvalue = 7.42E-07
 Linear dependence detected in AO basis
 Number of orthogonalized atomic orbitals = 377
 Maximum deviation from orthogonality = 8.632E-11

 Scale SEOQF with 1.000000e-01/1.000000e-01/1.000000e-01

 Standard Electronic Orientation quadrupole field applied
 Nucleus-field energy     =    -0.0000000055 hartrees
 Guess from superposition of atomic densities
 Warning:  Energy on first SCF cycle will be non-variational
 SAD guess density has 14.000000 electrons

 -----------------------------------------------------------------------
  General SCF calculation program by
  Eric Jon Sundstrom, Paul Horn, Yuezhi Mao, Dmitri Zuev, Alec White,
  David Stuck, Shaama M.S., Shane Yost, Joonho Lee, David Small,
  Daniel Levine, Susi Lehtola, Hugh Burton, Evgeny Epifanovsky
 -----------------------------------------------------------------------
 Exchange:     0.4280 Hartree-Fock + 1.0000 M11 + LR-HF
 Correlation:  1.0000 M11
 Using Euler-Maclaurin-Lebedev (99,590) quadrature formula
Running Object-Oriented UKS (UHF)
performing a single roothaan step with Fock from read density so that orbitals are available to all algorithms
energy of the guess density (C=0) -100.709640739242
We will preform up to 15 macro iterations over saddle points until a stable solution is found
Energy prior to optimization (guess energy) = -100.593877227174
Begin Timing: Total SCF Calculation
Begin Timing: SCF Single Stationary Point Calculation
begin iterations for algorithm: GDM          
the SCF tolerance is set to 1.00e-08
    1    -100.5938772272      1.49e-01     00000  Descent step
    2    -100.7146102818      2.75e-02     00000  Normal BFGS step
    3    -100.7232142049      1.10e-02     00000  Normal BFGS step
    4    -100.7236036527      1.23e-02     00000  Normal BFGS step
    5    -100.7237351875      2.05e-03     00000  Normal BFGS step
    6    -100.7237512841      6.01e-04     00000  Normal BFGS step
    7    -100.7237556442      3.88e-04     00000  Normal BFGS step
    8    -100.7237576809      1.43e-04     00000  Normal BFGS step
    9    -100.7237577855      2.87e-05     00000  Normal BFGS step
   10    -100.7237577930      5.47e-06     00000  Normal BFGS step
   11    -100.7237577933      7.59e-07     00000  Normal BFGS step
   12    -100.7237577933      4.88e-07     00000  Normal BFGS step
   13    -100.7237577933      3.92e-07     00000  Normal BFGS step
   14    -100.7237577932      5.38e-06     00000  Normal BFGS step
   15    -100.7237577933      3.50e-07     00000  Normal BFGS step
   16    -100.7237577933      2.86e-07     00000  Normal BFGS step
   17    -100.7237577933      4.14e-07     00000  Normal BFGS step
   18    -100.7237577933      8.70e-08     00000  Normal BFGS step
   19    -100.7237577933      2.06e-08     00000  Normal BFGS step
   20    -100.7237577933      3.02e-09     00000 Convergence criterion met
Timing for Single Stationary Point: 6398.00s (wall), 50789.08s (cpu)
Begin Timing: Stability
===================================================
Beginning Test for Internal Stability
===================================================
generating davidson guess vectors based on koopmans excitations
    1      4.23e-01     00000 Davidson Iteration
    2      3.58e-01     00000 Davidson Iteration
    3      2.09e-01     00000 Davidson Iteration
    4      3.26e-01     00000 Davidson Iteration
    5      2.08e-01     00000 Davidson Iteration
    6      1.86e-01     00000 Davidson Iteration
    7      1.37e-01     00000 Davidson Iteration
    8      6.02e-02     00000 Davidson Iteration
    9      7.59e-02     00000 Davidson Iteration
   10      5.36e-02     00000 Davidson Iteration
   11      5.18e-02     00000 Davidson Iteration
   12      5.09e-02     00000 Davidson Iteration
   13      4.79e-02     00000 Davidson Iteration
   14      4.78e-02     00000 Davidson Iteration
   15      3.12e-02     00000 Davidson Iteration
   16      1.60e-02     00000 Davidson Iteration
   17      7.28e-03     00000 Davidson Iteration
   18      3.20e-03     00000 Davidson Iteration
   19      4.94e-03     00000 Davidson Iteration
   20      1.59e-03     00000 Davidson Iteration
   21      6.92e-04     00000 Davidson Iteration
   22      4.12e-04     00000 Davidson Iteration
   23      1.66e-04     00000 Davidson Iteration
   24      4.70e-05     00000 Davidson Iteration
   25      7.98e-04     00000 Davidson Iteration
   26      1.77e-03     00000 Davidson Iteration
   27      3.46e-03     00000 Davidson Iteration
   28      3.01e-03     00000 Davidson Iteration
   29      2.35e-03     00000 Davidson Iteration
   30      1.06e-03     00000 Davidson Iteration
   31      3.93e-04     00000 Davidson Iteration
   32      2.82e-04     00000 Davidson Iteration
   33      2.38e-04     00000 Davidson Iteration
   34      1.09e-04     00000 Davidson Iteration
   35      3.21e-05     00000 Davidson Converged
converged_eigenvalues
   0.3948
   0.4847
   0.4847
Threshold for negative eigenvalues: -1.0e-05
solution was a local minimum (stable)
===================================================
End Test for Internal Stability
===================================================
Our SCF solution is stable!
Timing for Total SCF: 31851.00s (wall), 253140.23s (cpu)
 Total energy in the final basis set =     -100.7237577933
<S^2> =         -0.000000000
    ==================================================
              The end of Object-Oriented SCFman       
    ==================================================
 
 --------------------------------------------------------------
 
                    Orbital Energies (a.u.)
 --------------------------------------------------------------
 
 Alpha MOs
 -- Occupied --
-19.447  -7.016  -1.122  -0.618  -0.543  -0.486  -0.486
 -- Virtual --
 -0.012   0.001   0.001   0.005   0.033   0.033   0.033   0.039
  0.045   0.045   0.049   0.049   0.053   0.079   0.081   0.081
  0.092   0.092   0.108   0.112   0.112   0.124   0.124   0.133
  0.148   0.148   0.157   0.164   0.166   0.166   0.173   0.173
  0.180   0.180   0.193   0.193   0.199   0.209   0.209   0.215
  0.215   0.215   0.220   0.220   0.276   0.282   0.282   0.292
  0.292   0.301   0.315   0.315   0.316   0.316   0.322   0.322
  0.341   0.341   0.345   0.345   0.346   0.357   0.357   0.365
  0.398   0.398   0.402   0.402   0.403   0.405   0.405   0.409
  0.464   0.464   0.469   0.469   0.538   0.555   0.555   0.574
  0.575   0.575   0.594   0.594   0.602   0.602   0.608   0.608
  0.625   0.636   0.636   0.647   0.647   0.651   0.661   0.661
  0.679   0.684   0.684   0.733   0.744   0.744   0.752   0.752
  0.781   0.781   0.802   0.807   0.807   0.828   0.828   0.851
  0.890   0.890   0.918   0.918   0.925   0.925   0.936   0.936
  0.954   0.954   0.964   0.985   0.985   0.988   0.988   1.020
  1.048   1.121   1.121   1.159   1.159   1.169   1.220   1.220
  1.237   1.241   1.241   1.421   1.429   1.429   1.465   1.507
  1.507   1.560   1.560   1.562   1.633   1.633   1.643   1.708
  1.708   1.851   1.851   1.860   1.860   1.931   1.931   1.996
  2.006   2.094   2.094   2.105   2.105   2.198   2.263   2.263
  2.390   2.595   2.609   2.609   2.750   2.750   2.850   2.850
  2.854   2.934   3.028   3.028   3.263   3.263   3.298   3.298
  3.368   3.368   3.434   3.434   3.439   3.684   3.684   3.689
  3.752   3.752   3.832   3.832   3.847   3.847   3.908   4.053
  4.053   4.057   4.057   4.106   4.212   4.212   4.323   4.323
  4.330   4.462   4.462   4.597   4.661   4.661   4.874   5.061
  5.061   5.164   5.164   5.255   5.294   5.294   5.490   5.604
  5.604   5.866   5.995   5.995   6.026   6.026   6.046   6.123
  6.123   6.497   6.497   6.722   6.805   6.805   7.428   7.428
  7.490   7.745   7.838   7.838   8.194   8.235   8.235   8.271
  8.271   8.530   8.530   9.025   9.025   9.125   9.285   9.285
  9.296   9.296   9.395   9.395   9.395   9.395   9.451   9.451
  9.495   9.495   9.761   9.761   9.822   9.822   9.840  10.111
 10.169  10.169  10.198  10.198  10.297  10.297  10.422  10.422
 10.457  10.936  10.936  11.061  11.061  11.105  11.247  11.247
 11.302  11.468  11.468  11.629  11.817  11.817  11.863  11.863
 11.954  11.954  12.162  12.456  12.456  12.515  12.679  12.679
 12.802  12.802  12.855  12.855  13.064  13.064  13.301  13.301
 13.587  13.883  14.774  14.774  14.950  14.950  15.131  15.945
 15.945  16.009  16.174  16.174  16.577  16.577  16.587  16.587
 16.832  16.832  17.674  17.674  17.821  18.178  18.179  18.399
 18.399  19.341  19.710  19.710  20.198  20.376  20.376  21.386
 21.386  21.937  22.515  22.515  22.932  22.932  23.948  24.162
 24.162  25.472  26.820  30.489  32.224  32.224  34.316  40.063
 66.618  66.618  67.418  67.418  68.563  80.252  87.664  89.547
 89.547 144.335
 
 Beta MOs
 -- Occupied --
-19.447  -7.016  -1.122  -0.618  -0.543  -0.486  -0.486
 -- Virtual --
 -0.012   0.001   0.001   0.005   0.033   0.033   0.033   0.039
  0.045   0.045   0.049   0.049   0.053   0.079   0.081   0.081
  0.092   0.092   0.108   0.112   0.112   0.124   0.124   0.133
  0.148   0.148   0.157   0.164   0.166   0.166   0.173   0.173
  0.180   0.180   0.193   0.193   0.199   0.209   0.209   0.215
  0.215   0.215   0.220   0.220   0.276   0.282   0.282   0.292
  0.292   0.301   0.315   0.315   0.316   0.316   0.322   0.322
  0.341   0.341   0.345   0.345   0.346   0.357   0.357   0.365
  0.398   0.398   0.402   0.402   0.403   0.405   0.405   0.409
  0.464   0.464   0.469   0.469   0.538   0.555   0.555   0.574
  0.575   0.575   0.594   0.594   0.602   0.602   0.608   0.608
  0.625   0.636   0.636   0.647   0.647   0.651   0.661   0.661
  0.679   0.684   0.684   0.733   0.744   0.744   0.752   0.752
  0.781   0.781   0.802   0.807   0.807   0.828   0.828   0.851
  0.890   0.890   0.918   0.918   0.925   0.925   0.936   0.936
  0.954   0.954   0.964   0.985   0.985   0.988   0.988   1.020
  1.048   1.121   1.121   1.159   1.159   1.169   1.220   1.220
  1.237   1.241   1.241   1.421   1.429   1.429   1.465   1.507
  1.507   1.560   1.560   1.562   1.633   1.633   1.643   1.708
  1.708   1.851   1.851   1.860   1.860   1.931   1.931   1.996
  2.006   2.094   2.094   2.105   2.105   2.198   2.263   2.263
  2.390   2.595   2.609   2.609   2.750   2.750   2.850   2.850
  2.854   2.934   3.028   3.028   3.263   3.263   3.298   3.298
  3.368   3.368   3.434   3.434   3.439   3.684   3.684   3.689
  3.752   3.752   3.832   3.832   3.847   3.847   3.908   4.053
  4.053   4.057   4.057   4.106   4.212   4.212   4.323   4.323
  4.330   4.462   4.462   4.597   4.661   4.661   4.874   5.061
  5.061   5.164   5.164   5.255   5.294   5.294   5.490   5.604
  5.604   5.866   5.995   5.995   6.026   6.026   6.046   6.123
  6.123   6.497   6.497   6.722   6.805   6.805   7.428   7.428
  7.490   7.745   7.838   7.838   8.194   8.235   8.235   8.271
  8.271   8.530   8.530   9.025   9.025   9.125   9.285   9.285
  9.296   9.296   9.395   9.395   9.395   9.395   9.451   9.451
  9.495   9.495   9.761   9.761   9.822   9.822   9.840  10.111
 10.169  10.169  10.198  10.198  10.297  10.297  10.422  10.422
 10.457  10.936  10.936  11.061  11.061  11.105  11.247  11.247
 11.302  11.468  11.468  11.629  11.817  11.817  11.863  11.863
 11.954  11.954  12.162  12.456  12.456  12.515  12.679  12.679
 12.802  12.802  12.855  12.855  13.064  13.064  13.301  13.301
 13.587  13.883  14.774  14.774  14.950  14.950  15.131  15.945
 15.945  16.009  16.174  16.174  16.577  16.577  16.587  16.587
 16.832  16.832  17.674  17.674  17.821  18.178  18.179  18.399
 18.399  19.341  19.710  19.710  20.198  20.376  20.376  21.386
 21.386  21.937  22.515  22.515  22.932  22.932  23.948  24.162
 24.162  25.472  26.820  30.489  32.224  32.224  34.316  40.063
 66.618  66.618  67.418  67.418  68.563  80.252  87.664  89.547
 89.547 144.335
 --------------------------------------------------------------
 
          Ground-State Mulliken Net Atomic Charges

     Atom                 Charge (a.u.)    Spin (a.u.)
  --------------------------------------------------------
      1 B                    -0.558891       0.000000
      2 H                     1.800259      -0.000000
      3 O                    -1.241368      -0.000000
  --------------------------------------------------------
  Sum of atomic charges =    -0.000000
  Sum of spin   charges =    -0.000000

 -----------------------------------------------------------------
                    Cartesian Multipole Moments
 -----------------------------------------------------------------
    Charge (ESU x 10^10)
                -0.0000
    Dipole Moment (Debye)
         X      -0.0000      Y       0.0000      Z      -2.9989
       Tot       2.9989
    Quadrupole Moments (Debye-Ang)
        XX     -11.0190     XY       0.0000     YY     -11.0190
        XZ      -0.0000     YZ       0.0000     ZZ     -21.1561
    Octopole Moments (Debye-Ang^2)
       XXX      -0.0000    XXY       0.0000    XYY       0.0000
       YYY       0.0000    XXZ     -18.9100    XYZ       0.0000
       YYZ     -18.9100    XZZ      -0.0000    YZZ       0.0000
       ZZZ     -84.4077
    Hexadecapole Moments (Debye-Ang^3)
      XXXX     -11.0112   XXXY       0.0000   XXYY      -3.6704
      XYYY      -0.0000   YYYY     -11.0112   XXXZ      -0.0000
      XXYZ       0.0000   XYYZ      -0.0000   YYYZ       0.0000
      XXZZ     -42.6573   XYZZ       0.0000   YYZZ     -42.6573
      XZZZ      -0.0000   YZZZ       0.0000   ZZZZ    -311.5675
 -----------------------------------------------------------------
Archival summary:
1\1\n0078.mhg0\SP\ProcedureUnspecified\BasisUnspecified\111\yhljason\SatOct3113:36:172020SatOct3113:36:172020\0\\#,ProcedureUnspecified,BasisUnspecified,\\0,1\B\H,1,1.166\O,1,1.2,2,180\\\@

 Total job time:  32214.55s(wall), 255971.69s(cpu) 
 Sat Oct 31 13:36:17 2020

        *************************************************************
        *                                                           *
        *  Thank you very much for using Q-Chem.  Have a nice day.  *
        *                                                           *
        *************************************************************


