Q-Chem Developer Version!
                  Welcome to Q-Chem
     A Quantum Leap Into The Future Of Chemistry


 Q-Chem 5.1, Q-Chem, Inc., Pleasanton, CA (2018)

 Yihan Shao,  Zhengting Gan,  E. Epifanovsky,  A. T. B. Gilbert,  M. Wormit,  
 J. Kussmann,  A. W. Lange,  A. Behn,  Jia Deng,  Xintian Feng,  D. Ghosh,  
 M. Goldey,  P. R. Horn,  L. D. Jacobson,  I. Kaliman,  T. Kus,  A. Landau,  
 Jie Liu,  E. I. Proynov,  R. M. Richard,  R. P. Steele,  E. J. Sundstrom,  
 H. L. Woodcock III,  P. M. Zimmerman,  D. Zuev,  B. Albrecht,  E. Alguire,  
 S. A. Baeppler,  D. Barton,  Z. Benda,  Y. A. Bernard,  E. J. Berquist,  
 K. B. Bravaya,  H. Burton,  D. Casanova,  Chun-Min Chang,  Yunqing Chen,  
 A. Chien,  K. D. Closser,  M. P. Coons,  S. Coriani,  S. Dasgupta,  
 A. L. Dempwolff,  M. Diedenhofen,  Hainam Do,  R. G. Edgar,  Po-Tung Fang,  
 S. Faraji,  S. Fatehi,  Qingguo Feng,  K. D. Fenk,  J. Fosso-Tande,  
 Qinghui Ge,  A. Ghysels,  G. Gidofalvi,  J. Gomes,  J. Gonthier,  A. Gunina,  
 D. Hait,  M. W. D. Hanson-Heine,  P. H. P. Harbach,  A. W. Hauser,  
 J. E. Herr,  E. G. Hohenstein,  Z. C. Holden,  Kerwin Hui,  B. C. Huynh,  
 T.-C. Jagau,  Hyunjun Ji,  B. Kaduk,  K. Khistyaev,  Jaehoon Kim,  
 P. Klunzinger,  K. Koh,  D. Kosenkov,  L. Koulias,  T. Kowalczyk,  
 C. M. Krauter,  A. Kunitsa,  Ka Un Lao,  A. Laurent,  K. V. Lawler,  
 Joonho Lee,  D. Lefrancois,  S. Lehtola,  D. S. Levine,  Yi-Pei Li,  
 You-Sheng Lin,  Fenglai Liu,  E. Livshits,  A. Luenser,  P. Manohar,  
 E. Mansoor,  S. F. Manzer,  Shan-Ping Mao,  Yuezhi Mao,  N. Mardirossian,  
 A. V. Marenich,  T. Markovich,  L. A. Martinez-Martinez,  S. A. Maurer,  
 N. J. Mayhall,  S. C. McKenzie,  J.-M. Mewes,  A. F. Morrison,  
 J. W. Mullinax,  K. Nanda,  T. S. Nguyen-Beck,  R. Olivares-Amaya,  
 J. A. Parkhill,  T. M. Perrine,  F. Plasser,  P. Pokhilko,  S. Prager,  
 A. Prociuk,  E. Ramos,  D. R. Rehn,  F. Rob,  M. Schneider,  N. Sergueev,  
 S. M. Sharada,  S. Sharma,  D. W. Small,  T. Stauch,  T. Stein,  
 Yu-Chuan Su,  A. J. W. Thom,  A. Tkatchenko,  T. Tsuchimochi,  N. M. Tubman,  
 L. Vogt,  M. L. Vidal,  O. Vydrov,  M. A. Watson,  J. Wenzel,  
 M. de Wergifosse,  T. A. Wesolowski,  A. White,  J. Witte,  A. Yamada,  
 Jun Yang,  K. Yao,  S. Yeganeh,  S. R. Yost,  Zhi-Qiang You,  A. Zech,  
 Igor Ying Zhang,  Xing Zhang,  Yan Zhao,  Ying Zhu,  B. R. Brooks,  
 G. K. L. Chan,  C. J. Cramer,  M. S. Gordon,  W. J. Hehre,  A. Klamt,  
 M. W. Schmidt,  C. D. Sherrill,  D. G. Truhlar,  A. Aspuru-Guzik,  R. Baer,  
 A. T. Bell,  N. A. Besley,  Jeng-Da Chai,  A. E. DePrince, III,  
 R. A. DiStasio Jr.,  A. Dreuw,  B. D. Dunietz,  T. R. Furlani,  
 Chao-Ping Hsu,  Yousung Jung,  Jing Kong,  D. S. Lambrecht,  WanZhen Liang,  
 C. Ochsenfeld,  V. A. Rassolov,  L. V. Slipchenko,  J. E. Subotnik,  
 T. Van Voorhis,  J. M. Herbert,  A. I. Krylov,  P. M. W. Gill,  M. Head-Gordon

 Contributors to earlier versions of Q-Chem not listed above: 
 R. D. Adamson,  B. Austin,  J. Baker,  G. J. O. Beran,  K. Brandhorst,  
 S. T. Brown,  E. F. C. Byrd,  A. K. Chakraborty,  C.-L. Cheng,  
 Siu Hung Chien,  D. M. Chipman,  D. L. Crittenden,  H. Dachsel,  
 R. J. Doerksen,  A. D. Dutoi,  L. Fusti-Molnar,  W. A. Goddard III,  
 A. Golubeva-Zadorozhnaya,  S. R. Gwaltney,  G. Hawkins,  A. Heyden,  
 S. Hirata,  G. Kedziora,  F. J. Keil,  C. Kelley,  Jihan Kim,  R. A. King,  
 R. Z. Khaliullin,  P. P. Korambath,  W. Kurlancheek,  A. M. Lee,  M. S. Lee,  
 S. V. Levchenko,  Ching Yeh Lin,  D. Liotard,  R. C. Lochan,  I. Lotan,  
 P. E. Maslen,  N. Nair,  D. P. O'Neill,  D. Neuhauser,  E. Neuscamman,  
 C. M. Oana,  R. Olson,  B. Peters,  R. Peverati,  P. A. Pieniazek,  
 Y. M. Rhee,  J. Ritchie,  M. A. Rohrdanz,  E. Rosta,  N. J. Russ,  
 H. F. Schaefer III,  N. E. Schultz,  N. Shenvi,  A. C. Simmonett,  A. Sodt,  
 D. Stuck,  K. S. Thanthiriwatte,  V. Vanovschi,  Tao Wang,  A. Warshel,  
 C. F. Williams,  Q. Wu,  X. Xu,  W. Zhang

 Please cite Q-Chem as follows:
 Y. Shao et al., Mol. Phys. 113, 184-215 (2015)
 DOI: 10.1080/00268976.2014.952696

 Q-Chem 5.1.1 for Intel X86 EM64T Linux

 Parts of Q-Chem use Armadillo 8.300.2 (Tropical Shenanigans).
 http://arma.sourceforge.net/

 Q-Chem begins on Sat Oct 31 04:39:23 2020  

Host: n0090.mhg0
0

     Scratch files written to /local/scratch/users/yhljason/Mg2_M11_aug-pc-4.inp20201031025121//
Input Ideriv = 2
Curr. Ideriv = -1
Max.  Ideriv = 2
Input Ideriv = 1
Curr. Ideriv = 2
Max.  Ideriv = 1

Checking the input file for inconsistencies... 	...done.

--------------------------------------------------------------
User input:
--------------------------------------------------------------
$molecule
0 1
Mg1	0.0000	0.0000	0.0000
Mg2	0.0000	0.0000	3.8905
$end

$rem
jobtype sp
method M11
xc_grid 000099000590
basis aug-pc-4
max_scf_cycles 200
thresh 14
scf_convergence 8
scf_algorithm gdm
symmetry false
sym_ignore true
unrestricted True
gen_scfman true
internal_stability_iter 15
internal_stability_davidson_iter 200
mem_total 64000
mem_static 1500
n_frozen_core 0
$end



--------------------------------------------------------------
 ----------------------------------------------------------------
             Standard Nuclear Orientation (Angstroms)
    I     Atom           X                Y                Z
 ----------------------------------------------------------------
    1      Mg      0.0000000000     0.0000000000     0.0000000000
    2      Mg      0.0000000000     0.0000000000     3.8905000000
 ----------------------------------------------------------------
 Nuclear Repulsion Energy =    19.5865617158 hartrees
 There are       12 alpha and       12 beta electrons
 Requested basis set is aug-pc-4
 There are 46 shells and 170 basis functions

 Total QAlloc Memory Limit  64000 MB
 Mega-Array Size      1467 MB
 MEM_STATIC part      1500 MB

                       Distance Matrix (Angstroms)
             Mg(  1)
   Mg(  2)  3.890500
 
 A cutoff of  1.0D-14 yielded   1061 shell pairs
 There are     14709 function pairs (     24814 Cartesian)
 
 -------------------------------------------------------
 OpenMP Integral Computing Module                       
 Release: version 1.0, May 2013, Q-Chem Inc. Pittsburgh 
 -------------------------------------------------------
 Integral Job Info:
 Integral job number is                      11
 Integral operator is                         1
 short-range coefficients              42800000
 long-range coefficients              100000000
 Omega coefficients                         250
 if combine SR and LR in K                    1
 Integral screening is                        0
 Integral computing path is                   2
 max size of driver memory is           3200000
 size of driver memory is               1704330
 size of scratch memory is             27411850
 max col of scratch BK array              50625
 max len of scratch array in speh3         2114
 max len of scratch index in speh4           50
 max int batch size is                      520
 min int batch size is                       52
 fixed nKL is                                 7
 max L of basis functions is                  4
 order of int derivative is                   0
 number of shells is                         46
 number of basis is                         220
 number of cartesian basis is               220
 number of contracted shell pairs          1061
 number of primitive shell pairs           7071
 maxK2 (contraction) of shell pair          225
 max number of K2 of shell pair               1
 max number of CS2 of shell pair            100
 max number of PS2 of shell pair            726
 mem total for path MDJ                  660646
 -------------------------------------------------------
 Smallest overlap matrix eigenvalue = 6.23E-05

 Scale SEOQF with 1.000000e-01/1.000000e-01/1.000000e-02

 Standard Electronic Orientation quadrupole field applied
 Nucleus-field energy     =    -0.0000000019 hartrees
 Guess from superposition of atomic densities
 Warning:  Energy on first SCF cycle will be non-variational
 SAD guess density has 24.000000 electrons

 -----------------------------------------------------------------------
  General SCF calculation program by
  Eric Jon Sundstrom, Paul Horn, Yuezhi Mao, Dmitri Zuev, Alec White,
  David Stuck, Shaama M.S., Shane Yost, Joonho Lee, David Small,
  Daniel Levine, Susi Lehtola, Hugh Burton, Evgeny Epifanovsky
 -----------------------------------------------------------------------
 Exchange:     0.4280 Hartree-Fock + 1.0000 M11 + LR-HF
 Correlation:  1.0000 M11
 Using Euler-Maclaurin-Lebedev (99,590) quadrature formula
Running Object-Oriented UKS (UHF)
performing a single roothaan step with Fock from read density so that orbitals are available to all algorithms
energy of the guess density (C=0) -400.170008143286
We will preform up to 15 macro iterations over saddle points until a stable solution is found
Energy prior to optimization (guess energy) = -400.149419346725
Begin Timing: Total SCF Calculation
Begin Timing: SCF Single Stationary Point Calculation
begin iterations for algorithm: GDM          
the SCF tolerance is set to 1.00e-08
    1    -400.1494193467      1.14e-02     00000  Normal BFGS step
    2    -400.1502114481      2.24e-03     00000  Normal BFGS step
    3    -400.1502948149      8.00e-04     00000  Normal BFGS step
    4    -400.1502994966      9.47e-05     00000  Normal BFGS step
    5    -400.1502996173      3.78e-05     00000  Normal BFGS step
    6    -400.1502996244      5.54e-06     00000  Normal BFGS step
    7    -400.1502996247      1.93e-06     00000  Normal BFGS step
    8    -400.1502996248      3.87e-07     00000  Normal BFGS step
    9    -400.1502996248      9.71e-08     00000  Normal BFGS step
   10    -400.1502996248      1.67e-08     00000  Normal BFGS step
   11    -400.1502996248      2.73e-09     00000 Convergence criterion met
Timing for Single Stationary Point: 128.00s (wall), 1021.82s (cpu)
Begin Timing: Stability
===================================================
Beginning Test for Internal Stability
===================================================
generating davidson guess vectors based on koopmans excitations
    1      4.12e-01     00000 Davidson Iteration
    2      1.40e-01     00000 Davidson Iteration
    3      7.02e-02     00000 Davidson Iteration
    4      1.99e-02     00000 Davidson Iteration
    5      4.29e-03     00000 Davidson Iteration
    6      1.45e-03     00000 Davidson Iteration
    7      2.77e-04     00000 Davidson Iteration
    8      1.05e-04     00000 Davidson Iteration
    9      7.29e-05     00000 Davidson Iteration
   10      1.76e-02     00000 Davidson Iteration
   11      3.14e-03     00000 Davidson Iteration
   12      2.63e-03     00000 Davidson Iteration
   13      1.39e-03     00000 Davidson Iteration
   14      8.67e-04     00000 Davidson Iteration
   15      5.01e-04     00000 Davidson Iteration
   16      5.29e-04     00000 Davidson Iteration
   17      5.02e-04     00000 Davidson Iteration
   18      2.77e-04     00000 Davidson Iteration
   19      5.28e-05     00000 Davidson Converged
converged_eigenvalues
   0.1044
   0.1260
Threshold for negative eigenvalues: -1.0e-05
solution was a local minimum (stable)
===================================================
End Test for Internal Stability
===================================================
Our SCF solution is stable!
Timing for Total SCF: 590.00s (wall), 4705.14s (cpu)
 Total energy in the final basis set =     -400.1502996248
<S^2> =         -0.000000000
    ==================================================
              The end of Object-Oriented SCFman       
    ==================================================
 
 --------------------------------------------------------------
 
                    Orbital Energies (a.u.)
 --------------------------------------------------------------
 
 Alpha MOs
 -- Occupied --
-47.230 -47.230  -3.239  -3.239  -2.002  -2.002  -2.002  -2.002
 -2.002  -2.002  -0.296  -0.243
 -- Virtual --
 -0.015  -0.015  -0.015  -0.006  -0.003   0.002   0.002   0.017
  0.020   0.023   0.023   0.041   0.041   0.057   0.059   0.073
  0.078   0.078   0.084   0.090   0.090   0.093   0.093   0.100
  0.100   0.109   0.109   0.122   0.131   0.131   0.148   0.155
  0.155   0.171   0.171   0.188   0.188   0.197   0.211   0.211
  0.219   0.231   0.231   0.235   0.242   0.242   0.244   0.244
  0.261   0.261   0.265   0.274   0.275   0.275   0.280   0.280
  0.291   0.291   0.296   0.297   0.297   0.330   0.330   0.368
  0.368   0.376   0.382   0.382   0.414   0.414   0.444   0.455
  0.473   0.473   0.476   0.476   0.561   0.561   0.606   0.606
  0.645   0.647   0.733   0.735   0.983   0.999   0.999   1.050
  1.050   1.065   1.065   1.072   1.072   1.077   1.077   1.082
  1.083   1.084   1.084   1.086   1.115   1.115   1.121   1.266
  1.598   1.598   1.625   1.644   1.644   1.653   1.654   1.655
  1.655   1.657   1.657   1.659   1.659   1.669   1.669   1.714
  1.714   1.746   1.875   1.875   1.876   1.877   1.924   1.924
  1.943   1.943   1.979   2.037   4.822   4.835   4.835   4.837
  4.837   4.839   4.839   4.841   4.841   4.844   4.844   4.847
  4.847   4.853   4.909   4.974   7.807   7.807   7.808   7.808
  7.832   7.832   7.846   7.846   7.861   7.884
 
 Beta MOs
 -- Occupied --
-47.230 -47.230  -3.239  -3.239  -2.002  -2.002  -2.002  -2.002
 -2.002  -2.002  -0.296  -0.243
 -- Virtual --
 -0.015  -0.015  -0.015  -0.006  -0.003   0.002   0.002   0.017
  0.020   0.023   0.023   0.041   0.041   0.057   0.059   0.073
  0.078   0.078   0.084   0.090   0.090   0.093   0.093   0.100
  0.100   0.109   0.109   0.122   0.131   0.131   0.148   0.155
  0.155   0.171   0.171   0.188   0.188   0.197   0.211   0.211
  0.219   0.231   0.231   0.235   0.242   0.242   0.244   0.244
  0.261   0.261   0.265   0.274   0.275   0.275   0.280   0.280
  0.291   0.291   0.296   0.297   0.297   0.330   0.330   0.368
  0.368   0.376   0.382   0.382   0.414   0.414   0.444   0.455
  0.473   0.473   0.476   0.476   0.561   0.561   0.606   0.606
  0.645   0.647   0.733   0.735   0.983   0.999   0.999   1.050
  1.050   1.065   1.065   1.072   1.072   1.077   1.077   1.082
  1.083   1.084   1.084   1.086   1.115   1.115   1.121   1.266
  1.598   1.598   1.625   1.644   1.644   1.653   1.654   1.655
  1.655   1.657   1.657   1.659   1.659   1.669   1.669   1.714
  1.714   1.746   1.875   1.875   1.876   1.877   1.924   1.924
  1.943   1.943   1.979   2.037   4.822   4.835   4.835   4.837
  4.837   4.839   4.839   4.841   4.841   4.844   4.844   4.847
  4.847   4.853   4.909   4.974   7.807   7.807   7.808   7.808
  7.832   7.832   7.846   7.846   7.861   7.884
 --------------------------------------------------------------
 
          Ground-State Mulliken Net Atomic Charges

     Atom                 Charge (a.u.)    Spin (a.u.)
  --------------------------------------------------------
      1 Mg                    0.000000       0.000000
      2 Mg                   -0.000000      -0.000000
  --------------------------------------------------------
  Sum of atomic charges =    -0.000000
  Sum of spin   charges =    -0.000000

 -----------------------------------------------------------------
                    Cartesian Multipole Moments
 -----------------------------------------------------------------
    Charge (ESU x 10^10)
                -0.0000
    Dipole Moment (Debye)
         X      -0.0000      Y       0.0000      Z       0.0000
       Tot       0.0000
    Quadrupole Moments (Debye-Ang)
        XX     -25.1160     XY       0.0000     YY     -25.1160
        XZ       0.0000     YZ      -0.0000     ZZ     -26.0775
    Octopole Moments (Debye-Ang^2)
       XXX      -0.0000    XXY      -0.0000    XYY      -0.0000
       YYY       0.0000    XXZ     -48.8569    XYZ      -0.0000
       YYZ     -48.8569    XZZ       0.0000    YZZ      -0.0000
       ZZZ    -152.1818
    Hexadecapole Moments (Debye-Ang^3)
      XXXX     -70.6247   XXXY       0.0000   XXYY     -23.5413
      XYYY       0.0000   YYYY     -70.6247   XXXZ       0.0000
      XXYZ      -0.0000   XYYZ      -0.0000   YYYZ      -0.0000
      XXZZ    -216.4411   XYZZ      -0.0000   YYZZ    -216.4411
      XZZZ       0.0000   YZZZ      -0.0000   ZZZZ   -1258.4678
 -----------------------------------------------------------------
Archival summary:
1\1\n0090.mhg0\SP\ProcedureUnspecified\BasisUnspecified\g2\yhljason\SatOct3104:49:302020SatOct3104:49:302020\0\\#,ProcedureUnspecified,BasisUnspecified,\\0,1\Mg\Mg,1,3.8905\\\@

 Total job time:  607.02s(wall), 4837.79s(cpu) 
 Sat Oct 31 04:49:30 2020

        *************************************************************
        *                                                           *
        *  Thank you very much for using Q-Chem.  Have a nice day.  *
        *                                                           *
        *************************************************************


