Q-Chem Developer Version!
                  Welcome to Q-Chem
     A Quantum Leap Into The Future Of Chemistry


 Q-Chem 5.1, Q-Chem, Inc., Pleasanton, CA (2018)

 Yihan Shao,  Zhengting Gan,  E. Epifanovsky,  A. T. B. Gilbert,  M. Wormit,  
 J. Kussmann,  A. W. Lange,  A. Behn,  Jia Deng,  Xintian Feng,  D. Ghosh,  
 M. Goldey,  P. R. Horn,  L. D. Jacobson,  I. Kaliman,  T. Kus,  A. Landau,  
 Jie Liu,  E. I. Proynov,  R. M. Richard,  R. P. Steele,  E. J. Sundstrom,  
 H. L. Woodcock III,  P. M. Zimmerman,  D. Zuev,  B. Albrecht,  E. Alguire,  
 S. A. Baeppler,  D. Barton,  Z. Benda,  Y. A. Bernard,  E. J. Berquist,  
 K. B. Bravaya,  H. Burton,  D. Casanova,  Chun-Min Chang,  Yunqing Chen,  
 A. Chien,  K. D. Closser,  M. P. Coons,  S. Coriani,  S. Dasgupta,  
 A. L. Dempwolff,  M. Diedenhofen,  Hainam Do,  R. G. Edgar,  Po-Tung Fang,  
 S. Faraji,  S. Fatehi,  Qingguo Feng,  K. D. Fenk,  J. Fosso-Tande,  
 Qinghui Ge,  A. Ghysels,  G. Gidofalvi,  J. Gomes,  J. Gonthier,  A. Gunina,  
 D. Hait,  M. W. D. Hanson-Heine,  P. H. P. Harbach,  A. W. Hauser,  
 J. E. Herr,  E. G. Hohenstein,  Z. C. Holden,  Kerwin Hui,  B. C. Huynh,  
 T.-C. Jagau,  Hyunjun Ji,  B. Kaduk,  K. Khistyaev,  Jaehoon Kim,  
 P. Klunzinger,  K. Koh,  D. Kosenkov,  L. Koulias,  T. Kowalczyk,  
 C. M. Krauter,  A. Kunitsa,  Ka Un Lao,  A. Laurent,  K. V. Lawler,  
 Joonho Lee,  D. Lefrancois,  S. Lehtola,  D. S. Levine,  Yi-Pei Li,  
 You-Sheng Lin,  Fenglai Liu,  E. Livshits,  A. Luenser,  P. Manohar,  
 E. Mansoor,  S. F. Manzer,  Shan-Ping Mao,  Yuezhi Mao,  N. Mardirossian,  
 A. V. Marenich,  T. Markovich,  L. A. Martinez-Martinez,  S. A. Maurer,  
 N. J. Mayhall,  S. C. McKenzie,  J.-M. Mewes,  A. F. Morrison,  
 J. W. Mullinax,  K. Nanda,  T. S. Nguyen-Beck,  R. Olivares-Amaya,  
 J. A. Parkhill,  T. M. Perrine,  F. Plasser,  P. Pokhilko,  S. Prager,  
 A. Prociuk,  E. Ramos,  D. R. Rehn,  F. Rob,  M. Schneider,  N. Sergueev,  
 S. M. Sharada,  S. Sharma,  D. W. Small,  T. Stauch,  T. Stein,  
 Yu-Chuan Su,  A. J. W. Thom,  A. Tkatchenko,  T. Tsuchimochi,  N. M. Tubman,  
 L. Vogt,  M. L. Vidal,  O. Vydrov,  M. A. Watson,  J. Wenzel,  
 M. de Wergifosse,  T. A. Wesolowski,  A. White,  J. Witte,  A. Yamada,  
 Jun Yang,  K. Yao,  S. Yeganeh,  S. R. Yost,  Zhi-Qiang You,  A. Zech,  
 Igor Ying Zhang,  Xing Zhang,  Yan Zhao,  Ying Zhu,  B. R. Brooks,  
 G. K. L. Chan,  C. J. Cramer,  M. S. Gordon,  W. J. Hehre,  A. Klamt,  
 M. W. Schmidt,  C. D. Sherrill,  D. G. Truhlar,  A. Aspuru-Guzik,  R. Baer,  
 A. T. Bell,  N. A. Besley,  Jeng-Da Chai,  A. E. DePrince, III,  
 R. A. DiStasio Jr.,  A. Dreuw,  B. D. Dunietz,  T. R. Furlani,  
 Chao-Ping Hsu,  Yousung Jung,  Jing Kong,  D. S. Lambrecht,  WanZhen Liang,  
 C. Ochsenfeld,  V. A. Rassolov,  L. V. Slipchenko,  J. E. Subotnik,  
 T. Van Voorhis,  J. M. Herbert,  A. I. Krylov,  P. M. W. Gill,  M. Head-Gordon

 Contributors to earlier versions of Q-Chem not listed above: 
 R. D. Adamson,  B. Austin,  J. Baker,  G. J. O. Beran,  K. Brandhorst,  
 S. T. Brown,  E. F. C. Byrd,  A. K. Chakraborty,  C.-L. Cheng,  
 Siu Hung Chien,  D. M. Chipman,  D. L. Crittenden,  H. Dachsel,  
 R. J. Doerksen,  A. D. Dutoi,  L. Fusti-Molnar,  W. A. Goddard III,  
 A. Golubeva-Zadorozhnaya,  S. R. Gwaltney,  G. Hawkins,  A. Heyden,  
 S. Hirata,  G. Kedziora,  F. J. Keil,  C. Kelley,  Jihan Kim,  R. A. King,  
 R. Z. Khaliullin,  P. P. Korambath,  W. Kurlancheek,  A. M. Lee,  M. S. Lee,  
 S. V. Levchenko,  Ching Yeh Lin,  D. Liotard,  R. C. Lochan,  I. Lotan,  
 P. E. Maslen,  N. Nair,  D. P. O'Neill,  D. Neuhauser,  E. Neuscamman,  
 C. M. Oana,  R. Olson,  B. Peters,  R. Peverati,  P. A. Pieniazek,  
 Y. M. Rhee,  J. Ritchie,  M. A. Rohrdanz,  E. Rosta,  N. J. Russ,  
 H. F. Schaefer III,  N. E. Schultz,  N. Shenvi,  A. C. Simmonett,  A. Sodt,  
 D. Stuck,  K. S. Thanthiriwatte,  V. Vanovschi,  Tao Wang,  A. Warshel,  
 C. F. Williams,  Q. Wu,  X. Xu,  W. Zhang

 Please cite Q-Chem as follows:
 Y. Shao et al., Mol. Phys. 113, 184-215 (2015)
 DOI: 10.1080/00268976.2014.952696

 Q-Chem 5.1.1 for Intel X86 EM64T Linux

 Parts of Q-Chem use Armadillo 8.300.2 (Tropical Shenanigans).
 http://arma.sourceforge.net/

 Q-Chem begins on Sat Oct 31 04:40:36 2020  

Host: n0087.mhg0
0

     Scratch files written to /local/scratch/users/yhljason/PH2_M11_aug-pc-4.inp20201031025125//
Input Ideriv = 2
Curr. Ideriv = -1
Max.  Ideriv = 2
Input Ideriv = 1
Curr. Ideriv = 2
Max.  Ideriv = 1

Checking the input file for inconsistencies... 	...done.

--------------------------------------------------------------
User input:
--------------------------------------------------------------
$molecule
0 2
P1	0.0000	0.0000	0.0000
H2	0.0000	1.0229	0.9964
H3	0.0000	-1.0229	0.9964
$end

$rem
jobtype sp
method M11
xc_grid 000099000590
basis aug-pc-4
max_scf_cycles 200
thresh 14
scf_convergence 8
scf_algorithm gdm
symmetry false
sym_ignore true
unrestricted True
gen_scfman true
internal_stability_iter 15
internal_stability_davidson_iter 200
mem_total 64000
mem_static 1500
n_frozen_core 0
$end



--------------------------------------------------------------
 ----------------------------------------------------------------
             Standard Nuclear Orientation (Angstroms)
    I     Atom           X                Y                Z
 ----------------------------------------------------------------
    1      P       0.0000000000     0.0000000000     0.0000000000
    2      H       0.0000000000     1.0229000000     0.9964000000
    3      H       0.0000000000    -1.0229000000     0.9964000000
 ----------------------------------------------------------------
 Nuclear Repulsion Energy =    11.3759605773 hartrees
 There are        9 alpha and        8 beta electrons
 Requested basis set is aug-pc-4
 There are 79 shells and 317 basis functions

 Total QAlloc Memory Limit  64000 MB
 Mega-Array Size      1467 MB
 MEM_STATIC part      1500 MB

                       Distance Matrix (Angstroms)
             P (  1)   H (  2)
   H (  2)  1.427984
   H (  3)  1.427984  2.045800
 
 A cutoff of  1.0D-14 yielded   3139 shell pairs
 There are     51031 function pairs (     91792 Cartesian)
 
 -------------------------------------------------------
 OpenMP Integral Computing Module                       
 Release: version 1.0, May 2013, Q-Chem Inc. Pittsburgh 
 -------------------------------------------------------
 Integral Job Info:
 Integral job number is                      11
 Integral operator is                         1
 short-range coefficients              42800000
 long-range coefficients              100000000
 Omega coefficients                         250
 if combine SR and LR in K                    1
 Integral screening is                        0
 Integral computing path is                   2
 max size of driver memory is           6400000
 size of driver memory is               5498286
 size of scratch memory is             28418842
 max col of scratch BK array             194481
 max len of scratch array in speh3         5572
 max len of scratch index in speh4           72
 max int batch size is                      520
 min int batch size is                       52
 fixed nKL is                                 7
 max L of basis functions is                  5
 order of int derivative is                   0
 number of shells is                         79
 number of basis is                         424
 number of cartesian basis is               424
 number of contracted shell pairs          3139
 number of primitive shell pairs           9862
 maxK2 (contraction) of shell pair          225
 max number of K2 of shell pair               1
 max number of CS2 of shell pair            359
 max number of PS2 of shell pair            528
 mem total for path MDJ                  900380
 -------------------------------------------------------
 Smallest overlap matrix eigenvalue = 4.00E-06

 Scale SEOQF with 1.000000e-01/1.000000e-01/1.000000e-01

 Standard Electronic Orientation quadrupole field applied
 Guess from superposition of atomic densities
 Warning:  Energy on first SCF cycle will be non-variational
 SAD guess density has 17.000000 electrons

 -----------------------------------------------------------------------
  General SCF calculation program by
  Eric Jon Sundstrom, Paul Horn, Yuezhi Mao, Dmitri Zuev, Alec White,
  David Stuck, Shaama M.S., Shane Yost, Joonho Lee, David Small,
  Daniel Levine, Susi Lehtola, Hugh Burton, Evgeny Epifanovsky
 -----------------------------------------------------------------------
 Exchange:     0.4280 Hartree-Fock + 1.0000 M11 + LR-HF
 Correlation:  1.0000 M11
 Using Euler-Maclaurin-Lebedev (99,590) quadrature formula
Running Object-Oriented UKS (UHF)
performing a single roothaan step with Fock from read density so that orbitals are available to all algorithms
energy of the guess density (C=0) -342.347881468125
We will preform up to 15 macro iterations over saddle points until a stable solution is found
Energy prior to optimization (guess energy) = -342.505264320118
Begin Timing: Total SCF Calculation
Begin Timing: SCF Single Stationary Point Calculation
begin iterations for algorithm: GDM          
the SCF tolerance is set to 1.00e-08
    1    -342.5052643201      2.89e-02     00000  Normal BFGS step
    2    -342.5120793237      3.02e-02     00000  Normal BFGS step
    3    -342.5147258187      6.52e-03     00000  Normal BFGS step
    4    -342.5149741893      1.46e-03     00000  Normal BFGS step
    5    -342.5150080335      5.49e-04     00000  Normal BFGS step
    6    -342.5150118910      3.50e-04     00000  Normal BFGS step
    7    -342.5150125963      1.23e-04     00000  Normal BFGS step
    8    -342.5150126711      2.87e-05     00000  Normal BFGS step
    9    -342.5150126800      1.87e-05     00000  Normal BFGS step
   10    -342.5150126811      7.72e-06     00000  Normal BFGS step
   11    -342.5150126814      1.94e-06     00000  Normal BFGS step
   12    -342.5150126815      5.88e-07     00000  Normal BFGS step
   13    -342.5150126815      1.66e-07     00000  Normal BFGS step
   14    -342.5150126815      6.35e-08     00000  Normal BFGS step
   15    -342.5150126815      2.12e-08     00000  Normal BFGS step
   16    -342.5150126815      1.66e-08     00000  Normal BFGS step
   17    -342.5150126815      8.53e-09     00000 Convergence criterion met
Timing for Single Stationary Point: 2102.00s (wall), 16695.38s (cpu)
Begin Timing: Stability
===================================================
Beginning Test for Internal Stability
===================================================
generating davidson guess vectors based on koopmans excitations
    1      6.43e-01     00000 Davidson Iteration
    2      3.75e-01     00000 Davidson Iteration
    3      2.53e-01     00000 Davidson Iteration
    4      1.51e-01     00000 Davidson Iteration
    5      4.25e-02     00000 Davidson Iteration
    6      1.62e-02     00000 Davidson Iteration
    7      7.31e-03     00000 Davidson Iteration
    8      2.94e-03     00000 Davidson Iteration
    9      7.22e-04     00000 Davidson Iteration
   10      1.76e-04     00000 Davidson Iteration
   11      5.72e-05     00000 Davidson Iteration
   12      1.91e-03     00000 Davidson Iteration
   13      1.27e-02     00000 Davidson Iteration
   14      1.23e-03     00000 Davidson Iteration
   15      4.43e-04     00000 Davidson Iteration
   16      1.67e-04     00000 Davidson Iteration
   17      7.31e-05     00000 Davidson Converged
converged_eigenvalues
   0.1946
   0.4201
Threshold for negative eigenvalues: -1.0e-05
solution was a local minimum (stable)
===================================================
End Test for Internal Stability
===================================================
Our SCF solution is stable!
Timing for Total SCF: 7171.00s (wall), 56928.47s (cpu)
 Total energy in the final basis set =     -342.5150126815
<S^2> =          0.755626162
    ==================================================
              The end of Object-Oriented SCFman       
    ==================================================
 
 --------------------------------------------------------------
 
                    Orbital Energies (a.u.)
 --------------------------------------------------------------
 
 Alpha MOs
 -- Occupied --
-77.599  -6.719  -4.915  -4.907  -4.904  -0.769  -0.493  -0.414
 -0.351
 -- Virtual --
 -0.009   0.007   0.007   0.013   0.025   0.057   0.059   0.066
  0.070   0.072   0.073   0.094   0.096   0.099   0.109   0.112
  0.112   0.118   0.131   0.140   0.146   0.167   0.180   0.199
  0.200   0.201   0.203   0.209   0.211   0.215   0.221   0.222
  0.237   0.257   0.266   0.267   0.269   0.281   0.290   0.299
  0.301   0.302   0.310   0.312   0.362   0.370   0.370   0.382
  0.385   0.386   0.393   0.394   0.408   0.415   0.418   0.424
  0.443   0.444   0.452   0.459   0.465   0.473   0.474   0.480
  0.481   0.492   0.504   0.507   0.528   0.533   0.556   0.563
  0.572   0.581   0.586   0.598   0.603   0.608   0.617   0.621
  0.622   0.628   0.628   0.630   0.640   0.641   0.641   0.643
  0.648   0.666   0.668   0.689   0.709   0.729   0.731   0.732
  0.733   0.739   0.747   0.757   0.757   0.768   0.777   0.788
  0.824   0.824   0.843   0.865   0.884   0.916   0.984   0.990
  1.018   1.052   1.055   1.097   1.155   1.189   1.232   1.258
  1.264   1.280   1.281   1.287   1.322   1.349   1.372   1.408
  1.427   1.461   1.472   1.480   1.493   1.506   1.531   1.548
  1.641   1.669   1.672   1.724   1.763   1.767   2.233   2.234
  2.250   2.253   2.281   2.311   2.380   2.460   2.490   2.558
  2.645   2.708   2.751   2.770   2.773   2.906   2.955   2.960
  2.967   3.008   3.011   3.057   3.100   3.122   3.143   3.173
  3.189   3.277   3.364   3.453   3.507   3.528   3.570   3.575
  3.606   3.619   3.664   3.671   3.722   3.790   3.807   3.823
  3.824   3.882   3.936   4.087   4.094   4.173   4.337   4.425
  4.611   4.964   4.989   4.990   5.014   5.069   5.085   5.095
  5.307   5.317   5.410   5.431   5.437   5.514   5.579   5.711
  5.751   5.825   5.904   6.093   6.289   6.332   6.368   6.734
  7.113   7.471   7.477   7.498   7.600   7.630   7.639   7.811
  8.011   8.046   8.313   8.345   8.373   8.376   8.730   8.737
  8.778   8.792   9.145   9.217   9.221   9.259   9.338   9.349
  9.566   9.588  10.532  10.829  10.910  10.947  11.111  11.168
 11.305  11.523  11.690  12.044  12.058  12.095  12.101  12.286
 12.287  12.355  12.530  13.157  13.256  13.283  13.288  13.359
 13.388  16.180  16.181  16.182  16.183  16.310  16.343  16.343
 16.349  16.351  16.372  16.383  16.708  16.740  16.744  16.866
 16.920  17.039  17.750  17.853  17.855  17.865  18.016  19.021
 22.389  22.597  22.617  22.634  22.671  22.739  24.457  38.505
 38.657  58.996  59.001  59.080  59.239  59.805  86.990  87.021
 89.918  89.933  89.960  89.963
 
 Beta MOs
 -- Occupied --
-77.595  -6.713  -4.905  -4.902  -4.897  -0.730  -0.484  -0.399
 -- Virtual --
 -0.056  -0.026  -0.002  -0.001   0.002   0.022   0.025   0.041
  0.047   0.052   0.059   0.067   0.069   0.085   0.088   0.095
  0.095   0.097   0.107   0.122   0.124   0.144   0.160   0.170
  0.182   0.189   0.191   0.193   0.194   0.194   0.194   0.210
  0.215   0.222   0.237   0.248   0.249   0.255   0.275   0.284
  0.286   0.289   0.291   0.302   0.305   0.346   0.346   0.347
  0.350   0.365   0.365   0.367   0.375   0.386   0.397   0.403
  0.403   0.415   0.423   0.440   0.451   0.452   0.460   0.461
  0.475   0.477   0.484   0.499   0.506   0.519   0.525   0.551
  0.556   0.562   0.565   0.572   0.586   0.589   0.589   0.595
  0.598   0.603   0.605   0.610   0.610   0.612   0.616   0.626
  0.632   0.639   0.646   0.662   0.686   0.708   0.721   0.721
  0.722   0.724   0.729   0.737   0.744   0.748   0.756   0.775
  0.783   0.814   0.820   0.841   0.861   0.877   0.912   0.983
  0.999   1.021   1.053   1.068   1.114   1.164   1.184   1.238
  1.280   1.280   1.289   1.300   1.315   1.319   1.357   1.386
  1.420   1.427   1.453   1.469   1.479   1.490   1.498   1.529
  1.542   1.650   1.659   1.689   1.742   1.761   1.765   2.251
  2.280   2.291   2.295   2.301   2.340   2.394   2.485   2.533
  2.591   2.647   2.697   2.726   2.772   2.793   2.939   2.939
  2.971   3.012   3.052   3.060   3.074   3.111   3.130   3.133
  3.175   3.200   3.277   3.415   3.442   3.483   3.506   3.545
  3.556   3.592   3.612   3.645   3.684   3.704   3.786   3.799
  3.800   3.815   3.867   3.943   4.092   4.100   4.158   4.381
  4.419   4.604   4.957   4.965   5.003   5.004   5.097   5.099
  5.123   5.278   5.330   5.420   5.469   5.519   5.609   5.637
  5.727   5.745   5.849   5.851   6.140   6.294   6.307   6.323
  6.701   7.108   7.496   7.499   7.543   7.611   7.638   7.647
  7.725   7.955   7.964   8.200   8.238   8.243   8.251   8.619
  8.629   8.666   8.667   8.737   8.744   8.989   9.065   9.077
  9.159   9.469   9.490  10.545  10.744  10.749  10.959  10.965
 11.048  11.109  11.378  11.451  11.904  11.939  11.949  11.957
 12.008  12.016  12.030  12.228  12.562  12.766  12.774  12.794
 12.830  12.930  16.047  16.071  16.071  16.072  16.073  16.080
 16.099  16.102  16.215  16.220  16.262  16.269  16.343  16.400
 16.400  16.553  16.697  17.240  17.244  17.356  17.365  17.541
 18.554  21.727  21.965  22.397  22.417  22.458  22.469  24.286
 37.892  38.038  59.007  59.010  59.079  59.252  59.801  85.791
 85.818  88.857  88.871  88.922  88.925
 --------------------------------------------------------------
 
          Ground-State Mulliken Net Atomic Charges

     Atom                 Charge (a.u.)    Spin (a.u.)
  --------------------------------------------------------
      1 P                    -2.121985       0.938284
      2 H                     1.060993       0.030858
      3 H                     1.060993       0.030858
  --------------------------------------------------------
  Sum of atomic charges =    -0.000000
  Sum of spin   charges =     1.000000

 -----------------------------------------------------------------
                    Cartesian Multipole Moments
 -----------------------------------------------------------------
    Charge (ESU x 10^10)
                -0.0000
    Dipole Moment (Debye)
         X      -0.0000      Y      -0.0000      Z       0.5632
       Tot       0.5632
    Quadrupole Moments (Debye-Ang)
        XX     -15.1545     XY      -0.0000     YY     -14.0026
        XZ       0.0000     YZ       0.0000     ZZ     -15.3237
    Octopole Moments (Debye-Ang^2)
       XXX      -0.0000    XXY      -0.0000    XYY       0.0000
       YYY       0.0000    XXZ      -1.5229    XYZ       0.0000
       YYZ      -1.4099    XZZ      -0.0000    YZZ       0.0000
       ZZZ      -4.6755
    Hexadecapole Moments (Debye-Ang^3)
      XXXX     -23.2351   XXXY      -0.0000   XXYY      -9.2558
      XYYY       0.0000   YYYY     -30.7258   XXXZ       0.0000
      XXYZ      -0.0000   XYYZ       0.0000   YYYZ       0.0000
      XXZZ      -9.8554   XYZZ       0.0000   YYZZ     -10.0455
      XZZZ       0.0000   YZZZ       0.0000   ZZZZ     -34.8993
 -----------------------------------------------------------------
Archival summary:
1\1\n0087.mhg0\SP\ProcedureUnspecified\BasisUnspecified\12(2)\yhljason\SatOct3106:42:292020SatOct3106:42:292020\0\\#,ProcedureUnspecified,BasisUnspecified,\\0,2\P\H,1,1.42798\H,1,1.42798,2,91.5037\\\@

 Total job time:  7313.27s(wall), 58042.62s(cpu) 
 Sat Oct 31 06:42:29 2020

        *************************************************************
        *                                                           *
        *  Thank you very much for using Q-Chem.  Have a nice day.  *
        *                                                           *
        *************************************************************


