Q-Chem Developer Version!
                  Welcome to Q-Chem
     A Quantum Leap Into The Future Of Chemistry


 Q-Chem 5.1, Q-Chem, Inc., Pleasanton, CA (2018)

 Yihan Shao,  Zhengting Gan,  E. Epifanovsky,  A. T. B. Gilbert,  M. Wormit,  
 J. Kussmann,  A. W. Lange,  A. Behn,  Jia Deng,  Xintian Feng,  D. Ghosh,  
 M. Goldey,  P. R. Horn,  L. D. Jacobson,  I. Kaliman,  T. Kus,  A. Landau,  
 Jie Liu,  E. I. Proynov,  R. M. Richard,  R. P. Steele,  E. J. Sundstrom,  
 H. L. Woodcock III,  P. M. Zimmerman,  D. Zuev,  B. Albrecht,  E. Alguire,  
 S. A. Baeppler,  D. Barton,  Z. Benda,  Y. A. Bernard,  E. J. Berquist,  
 K. B. Bravaya,  H. Burton,  D. Casanova,  Chun-Min Chang,  Yunqing Chen,  
 A. Chien,  K. D. Closser,  M. P. Coons,  S. Coriani,  S. Dasgupta,  
 A. L. Dempwolff,  M. Diedenhofen,  Hainam Do,  R. G. Edgar,  Po-Tung Fang,  
 S. Faraji,  S. Fatehi,  Qingguo Feng,  K. D. Fenk,  J. Fosso-Tande,  
 Qinghui Ge,  A. Ghysels,  G. Gidofalvi,  J. Gomes,  J. Gonthier,  A. Gunina,  
 D. Hait,  M. W. D. Hanson-Heine,  P. H. P. Harbach,  A. W. Hauser,  
 J. E. Herr,  E. G. Hohenstein,  Z. C. Holden,  Kerwin Hui,  B. C. Huynh,  
 T.-C. Jagau,  Hyunjun Ji,  B. Kaduk,  K. Khistyaev,  Jaehoon Kim,  
 P. Klunzinger,  K. Koh,  D. Kosenkov,  L. Koulias,  T. Kowalczyk,  
 C. M. Krauter,  A. Kunitsa,  Ka Un Lao,  A. Laurent,  K. V. Lawler,  
 Joonho Lee,  D. Lefrancois,  S. Lehtola,  D. S. Levine,  Yi-Pei Li,  
 You-Sheng Lin,  Fenglai Liu,  E. Livshits,  A. Luenser,  P. Manohar,  
 E. Mansoor,  S. F. Manzer,  Shan-Ping Mao,  Yuezhi Mao,  N. Mardirossian,  
 A. V. Marenich,  T. Markovich,  L. A. Martinez-Martinez,  S. A. Maurer,  
 N. J. Mayhall,  S. C. McKenzie,  J.-M. Mewes,  A. F. Morrison,  
 J. W. Mullinax,  K. Nanda,  T. S. Nguyen-Beck,  R. Olivares-Amaya,  
 J. A. Parkhill,  T. M. Perrine,  F. Plasser,  P. Pokhilko,  S. Prager,  
 A. Prociuk,  E. Ramos,  D. R. Rehn,  F. Rob,  M. Schneider,  N. Sergueev,  
 S. M. Sharada,  S. Sharma,  D. W. Small,  T. Stauch,  T. Stein,  
 Yu-Chuan Su,  A. J. W. Thom,  A. Tkatchenko,  T. Tsuchimochi,  N. M. Tubman,  
 L. Vogt,  M. L. Vidal,  O. Vydrov,  M. A. Watson,  J. Wenzel,  
 M. de Wergifosse,  T. A. Wesolowski,  A. White,  J. Witte,  A. Yamada,  
 Jun Yang,  K. Yao,  S. Yeganeh,  S. R. Yost,  Zhi-Qiang You,  A. Zech,  
 Igor Ying Zhang,  Xing Zhang,  Yan Zhao,  Ying Zhu,  B. R. Brooks,  
 G. K. L. Chan,  C. J. Cramer,  M. S. Gordon,  W. J. Hehre,  A. Klamt,  
 M. W. Schmidt,  C. D. Sherrill,  D. G. Truhlar,  A. Aspuru-Guzik,  R. Baer,  
 A. T. Bell,  N. A. Besley,  Jeng-Da Chai,  A. E. DePrince, III,  
 R. A. DiStasio Jr.,  A. Dreuw,  B. D. Dunietz,  T. R. Furlani,  
 Chao-Ping Hsu,  Yousung Jung,  Jing Kong,  D. S. Lambrecht,  WanZhen Liang,  
 C. Ochsenfeld,  V. A. Rassolov,  L. V. Slipchenko,  J. E. Subotnik,  
 T. Van Voorhis,  J. M. Herbert,  A. I. Krylov,  P. M. W. Gill,  M. Head-Gordon

 Contributors to earlier versions of Q-Chem not listed above: 
 R. D. Adamson,  B. Austin,  J. Baker,  G. J. O. Beran,  K. Brandhorst,  
 S. T. Brown,  E. F. C. Byrd,  A. K. Chakraborty,  C.-L. Cheng,  
 Siu Hung Chien,  D. M. Chipman,  D. L. Crittenden,  H. Dachsel,  
 R. J. Doerksen,  A. D. Dutoi,  L. Fusti-Molnar,  W. A. Goddard III,  
 A. Golubeva-Zadorozhnaya,  S. R. Gwaltney,  G. Hawkins,  A. Heyden,  
 S. Hirata,  G. Kedziora,  F. J. Keil,  C. Kelley,  Jihan Kim,  R. A. King,  
 R. Z. Khaliullin,  P. P. Korambath,  W. Kurlancheek,  A. M. Lee,  M. S. Lee,  
 S. V. Levchenko,  Ching Yeh Lin,  D. Liotard,  R. C. Lochan,  I. Lotan,  
 P. E. Maslen,  N. Nair,  D. P. O'Neill,  D. Neuhauser,  E. Neuscamman,  
 C. M. Oana,  R. Olson,  B. Peters,  R. Peverati,  P. A. Pieniazek,  
 Y. M. Rhee,  J. Ritchie,  M. A. Rohrdanz,  E. Rosta,  N. J. Russ,  
 H. F. Schaefer III,  N. E. Schultz,  N. Shenvi,  A. C. Simmonett,  A. Sodt,  
 D. Stuck,  K. S. Thanthiriwatte,  V. Vanovschi,  Tao Wang,  A. Warshel,  
 C. F. Williams,  Q. Wu,  X. Xu,  W. Zhang

 Please cite Q-Chem as follows:
 Y. Shao et al., Mol. Phys. 113, 184-215 (2015)
 DOI: 10.1080/00268976.2014.952696

 Q-Chem 5.1.1 for Intel X86 EM64T Linux

 Parts of Q-Chem use Armadillo 8.300.2 (Tropical Shenanigans).
 http://arma.sourceforge.net/

 Q-Chem begins on Tue Oct 27 23:49:22 2020  

Host: n0031.mhg0
0

     Scratch files written to /local/scratch/users/yhljason/Be_XYGJOS_aug-cc-pcVQZ.inp20201027234849//
Input Ideriv = 2
Curr. Ideriv = -1
Max.  Ideriv = 2

Checking the input file for inconsistencies... 	...done.

--------------------------------------------------------------
User input:
--------------------------------------------------------------
$molecule
0 1
Be
$end

$rem
jobtype sp
exchange XYGJOS
xc_grid 000099000590
basis aug-cc-pcVQZ
aux_basis rimp2-cc-pVQZ
max_scf_cycles 200
thresh 14
scf_convergence 8
scf_algorithm gdm
symmetry false
sym_ignore true
unrestricted false
gen_scfman true
internal_stability_iter 15
internal_stability_davidson_iter 200
mem_total 128000
cc_memory 96000
cc_backend xm
mem_static 1500
n_frozen_core 0
$end



--------------------------------------------------------------
 ----------------------------------------------------------------
             Standard Nuclear Orientation (Angstroms)
    I     Atom           X                Y                Z
 ----------------------------------------------------------------
    1      Be      0.0000000000     0.0000000000     0.0000000000
 ----------------------------------------------------------------
 Nuclear Repulsion Energy =     0.0000000000 hartrees
 There are        2 alpha and        2 beta electrons
 Requested basis set is aug-cc-pCVQZ
 There are 29 shells and 109 basis functions

 Total QAlloc Memory Limit 128000 MB
 Mega-Array Size      1467 MB
 MEM_STATIC part      1500 MB
 Requested basis set is rimp2-cc-pVQZ
 There are 30 shells and 132 basis functions
 A cutoff of  1.0D-14 yielded    435 shell pairs
 There are      6235 function pairs (     10234 Cartesian)
 
 -------------------------------------------------------
 OpenMP Integral Computing Module                       
 Release: version 1.0, May 2013, Q-Chem Inc. Pittsburgh 
 -------------------------------------------------------
 Integral Job Info:
 Integral job number is                      11
 Integral operator is                         1
 short-range coefficients                     0
 long-range coefficients              100000000
 Omega coefficients                           0
 if combine SR and LR in K                    0
 Integral screening is                        0
 Integral computing path is                   2
 max size of driver memory is           3200000
 size of driver memory is               1704330
 size of scratch memory is             18511652
 max col of scratch BK array              50625
 max len of scratch array in speh3         2114
 max len of scratch index in speh4           50
 max int batch size is                      520
 min int batch size is                       52
 fixed nKL is                                52
 max L of basis functions is                  4
 order of int derivative is                   0
 number of shells is                         29
 number of basis is                         139
 number of cartesian basis is               139
 number of contracted shell pairs           435
 number of primitive shell pairs           1203
 maxK2 (contraction) of shell pair           81
 max number of K2 of shell pair               1
 max number of CS2 of shell pair             49
 max number of PS2 of shell pair            243
 mem total for path MDJ                  609409
 -------------------------------------------------------
 Smallest overlap matrix eigenvalue = 2.05E-04

 Scale SEOQF with 1.000000e-02/1.000000e-02/1.000000e-02

 Standard Electronic Orientation quadrupole field applied
 Guess from superposition of atomic densities
 Warning:  Energy on first SCF cycle will be non-variational
 SAD guess density has 4.000000 electrons

 -----------------------------------------------------------------------
  General SCF calculation program by
  Eric Jon Sundstrom, Paul Horn, Yuezhi Mao, Dmitri Zuev, Alec White,
  David Stuck, Shaama M.S., Shane Yost, Joonho Lee, David Small,
  Daniel Levine, Susi Lehtola, Hugh Burton, Evgeny Epifanovsky
 -----------------------------------------------------------------------
 Exchange:     0.2000 Hartree-Fock + 0.0800 Slater + 0.7200 B88
 Correlation:  0.1900 VWN1RPA + 0.8100 LYP
 Using Euler-Maclaurin-Lebedev (99,590) quadrature formula
Running Object-Oriented RKS (RHF)
We will preform up to 15 macro iterations over saddle points until a stable solution is found
Energy prior to optimization (guess energy) = -14.673251656688
Begin Timing: Total SCF Calculation
Begin Timing: SCF Single Stationary Point Calculation
begin iterations for algorithm: GDM          
the SCF tolerance is set to 1.00e-08
    1     -14.6732516567      1.83e-03     00000  Normal BFGS step
    2     -14.6732583551      2.47e-04     00000  Normal BFGS step
    3     -14.6732584885      1.31e-05     00000  Normal BFGS step
    4     -14.6732584890      1.19e-06     00000  Normal BFGS step
    5     -14.6732584890      5.15e-08     00000  Normal BFGS step
    6     -14.6732584890      2.13e-09     00000 Convergence criterion met
Timing for Single Stationary Point: 2.00s (wall), 14.40s (cpu)
Begin Timing: Stability
===================================================
Beginning Test for Internal Stability
===================================================
generating davidson guess vectors based on koopmans excitations
    1      1.52e+00     00000 Davidson Iteration
    2      1.14e+00     00000 Davidson Iteration
    3      1.59e-01     00000 Davidson Iteration
    4      7.41e-03     00000 Davidson Iteration
    5      5.27e-04     00000 Davidson Iteration
    6      3.70e-04     00000 Davidson Iteration
    7      1.01e-04     00000 Davidson Iteration
    8      2.03e-05     00000 Davidson Converged
converged_eigenvalues
   0.8442
   0.8442
Threshold for negative eigenvalues: -1.0e-05
solution was a local minimum (stable)
===================================================
End Test for Internal Stability
===================================================
Our SCF solution is stable!
Timing for Total SCF: 7.00s (wall), 57.23s (cpu)
 Total energy in the final basis set =      -14.6732584890
 Exchange:     0.7731 Hartree-Fock + 0.2269 Slater
 Correlation:  0.2309 VWN1RPA + 0.2754 LYP
 Using Euler-Maclaurin-Lebedev (99,590) quadrature formula
 B3LYP orbitals are now ready for the XYGJ-OS calculation.
 XYGJ-OS energy = Exch (0.7731 HF  + 0.2269 Slater) + 
                  Corr (0.2754 LYP + 0.2309 VWN1RPA + 0.4364 OS-MP2)
 Total Energy after ks_energy_corrections: -14.586604121822
    ==================================================
              The end of Object-Oriented SCFman       
    ==================================================
 Entering Scaled Opposite Spin MP2
 NBasAux in rimp2.F =          132

 OS-MP2 job begins now...

 SOS scaling factor =  0.4
 Form (P|Q)**(-1/2)...
 
 Form (ia|P)...
 Form BiaQ = (ia|P)*(P|Q)**(-1/2)...
 Laplace quadrature loop begins
 Laplace point 1: correlation energy     =        -0.0246058948
 Laplace point 2: correlation energy     =        -0.0215142096
 Laplace point 3: correlation energy     =        -0.0119441200
 Laplace point 4: correlation energy     =        -0.0143158662
 Laplace point 5: correlation energy     =        -0.0166323695
 Laplace point 6: correlation energy     =        -0.0104797913
 Laplace point 7: correlation energy     =        -0.0017449891
 
 singles contribution not yet available for XYGJ-OS 
 Total OS-MP2 correlation energy         =        -0.1012372406

 Total XYGJ-OS energy                    =       -14.6307840536
 
 ------------------------------------------------------------------------------
                     SOSMP2        : Timing summary (seconds)
 ------------------------------------------------------------------------------
     job step          cpu (% of tot)      sys (% of tot)     wall (% of tot)
 ------------------------------------------------------------------------------
  Form inv (P|Q)    0.1674E+00 ( 5.7)   0.2000E-05 ( 7.7)   0.2119E-01 ( 5.7)
  Form (ia|P)       0.2610E+01 (88.8)   0.2400E-04 (92.3)   0.3277E+00 (88.8)
  Form  BiaQ        0.1396E-01 ( 0.5)   0.0000E+00 ( 0.0)   0.1744E-02 ( 0.5)
  LP orbitals       0.2111E-01 ( 0.7)   0.0000E+00 ( 0.0)   0.2639E-02 ( 0.7)
  Form  X(PQ)       0.4623E-01 ( 1.6)   0.0000E+00 ( 0.0)   0.5813E-02 ( 1.6)
  Increment EMP2    0.3012E-01 ( 1.0)   0.0000E+00 ( 0.0)   0.3777E-02 ( 1.0)
 ------------------------------------------------------------------------------
   Grand Totals     0.2938E+01          0.2600E-04          0.3691E+00
 ------------------------------------------------------------------------------
 
 --------------------------------------------------------------
 
                    Orbital Energies (a.u.)
 --------------------------------------------------------------
 
 Alpha MOs
 -- Occupied --
 -4.087  -0.232
 -- Virtual --
 -0.052  -0.052  -0.052   0.006   0.010   0.010   0.010   0.107
  0.107   0.107   0.107   0.107   0.117   0.117   0.117   0.129
  0.303   0.303   0.303   0.303   0.303   0.303   0.303   0.458
  0.458   0.458   0.458   0.458   0.527   0.527   0.527   0.620
  0.811   0.811   0.811   0.811   0.811   0.811   0.811   0.811
  0.811   0.993   0.993   0.993   0.993   0.993   0.993   0.993
  1.438   1.438   1.438   1.438   1.438   1.896   1.896   1.896
  2.329   2.329   2.329   2.329   2.329   2.329   2.329   2.329
  2.329   2.484   2.484   2.484   2.484   2.484   2.484   2.484
  3.158   4.027   4.027   4.027   4.027   4.027   7.491   7.491
  7.491  13.354  18.666  18.666  18.666  18.666  18.666  27.794
 27.794  27.794  47.772  50.074  50.074  50.074  50.074  50.074
 50.074  50.074  95.889  95.889  95.889 102.221 102.221 102.221
102.221 102.221 205.414
 --------------------------------------------------------------
 
          Ground-State Mulliken Net Atomic Charges

     Atom                 Charge (a.u.)
  ----------------------------------------
      1 Be                    0.000000
  ----------------------------------------
  Sum of atomic charges =     0.000000

 -----------------------------------------------------------------
                    Cartesian Multipole Moments
 -----------------------------------------------------------------
    Charge (ESU x 10^10)
                 0.0000
    Dipole Moment (Debye)
         X      -0.0000      Y      -0.0000      Z       0.0000
       Tot       0.0000
    Quadrupole Moments (Debye-Ang)
        XX      -7.5349     XY       0.0000     YY      -7.5349
        XZ      -0.0000     YZ      -0.0000     ZZ      -7.5349
    Octopole Moments (Debye-Ang^2)
       XXX       0.0000    XXY      -0.0000    XYY      -0.0000
       YYY      -0.0000    XXZ       0.0000    XYZ      -0.0000
       YYZ       0.0000    XZZ      -0.0000    YZZ      -0.0000
       ZZZ       0.0000
    Hexadecapole Moments (Debye-Ang^3)
      XXXX     -19.3216   XXXY       0.0000   XXYY      -6.4405
      XYYY       0.0000   YYYY     -19.3216   XXXZ      -0.0000
      XXYZ      -0.0000   XYYZ      -0.0000   YYYZ      -0.0000
      XXZZ      -6.4405   XYZZ      -0.0000   YYZZ      -6.4405
      XZZZ      -0.0000   YZZZ      -0.0000   ZZZZ     -19.3216
 -----------------------------------------------------------------

 STANDARD THERMODYNAMIC QUANTITIES AT   298.15 K  AND     1.00 ATM

   Translational Enthalpy:        0.889 kcal/mol
   Rotational Enthalpy:           0.000 kcal/mol
   Vibrational Enthalpy:          0.000 kcal/mol
   gas constant (RT):             0.592 kcal/mol
   Translational Entropy:        32.544  cal/mol.K
   Rotational Entropy:            0.000  cal/mol.K
   Vibrational Entropy:           0.000  cal/mol.K

   Total Enthalpy:                1.481 kcal/mol
   Total Entropy:                32.544  cal/mol.K

 -----------------------------------------------------------------

Archival summary:
1\1\n0031.mhg0\SP\ProcedureUnspecified\BasisUnspecified\e1\yhljason\TueOct2723:49:312020TueOct2723:49:312020\0\\#,ProcedureUnspecified,BasisUnspecified,\\0,1\Be\\\@

 Total job time:  8.95s(wall), 70.19s(cpu) 
 Tue Oct 27 23:49:31 2020

        *************************************************************
        *                                                           *
        *  Thank you very much for using Q-Chem.  Have a nice day.  *
        *                                                           *
        *************************************************************


 
User input: 2 of 7 
 
Q-Chem Developer Version!
                  Welcome to Q-Chem
     A Quantum Leap Into The Future Of Chemistry


 Q-Chem 5.1, Q-Chem, Inc., Pleasanton, CA (2018)

 Yihan Shao,  Zhengting Gan,  E. Epifanovsky,  A. T. B. Gilbert,  M. Wormit,  
 J. Kussmann,  A. W. Lange,  A. Behn,  Jia Deng,  Xintian Feng,  D. Ghosh,  
 M. Goldey,  P. R. Horn,  L. D. Jacobson,  I. Kaliman,  T. Kus,  A. Landau,  
 Jie Liu,  E. I. Proynov,  R. M. Richard,  R. P. Steele,  E. J. Sundstrom,  
 H. L. Woodcock III,  P. M. Zimmerman,  D. Zuev,  B. Albrecht,  E. Alguire,  
 S. A. Baeppler,  D. Barton,  Z. Benda,  Y. A. Bernard,  E. J. Berquist,  
 K. B. Bravaya,  H. Burton,  D. Casanova,  Chun-Min Chang,  Yunqing Chen,  
 A. Chien,  K. D. Closser,  M. P. Coons,  S. Coriani,  S. Dasgupta,  
 A. L. Dempwolff,  M. Diedenhofen,  Hainam Do,  R. G. Edgar,  Po-Tung Fang,  
 S. Faraji,  S. Fatehi,  Qingguo Feng,  K. D. Fenk,  J. Fosso-Tande,  
 Qinghui Ge,  A. Ghysels,  G. Gidofalvi,  J. Gomes,  J. Gonthier,  A. Gunina,  
 D. Hait,  M. W. D. Hanson-Heine,  P. H. P. Harbach,  A. W. Hauser,  
 J. E. Herr,  E. G. Hohenstein,  Z. C. Holden,  Kerwin Hui,  B. C. Huynh,  
 T.-C. Jagau,  Hyunjun Ji,  B. Kaduk,  K. Khistyaev,  Jaehoon Kim,  
 P. Klunzinger,  K. Koh,  D. Kosenkov,  L. Koulias,  T. Kowalczyk,  
 C. M. Krauter,  A. Kunitsa,  Ka Un Lao,  A. Laurent,  K. V. Lawler,  
 Joonho Lee,  D. Lefrancois,  S. Lehtola,  D. S. Levine,  Yi-Pei Li,  
 You-Sheng Lin,  Fenglai Liu,  E. Livshits,  A. Luenser,  P. Manohar,  
 E. Mansoor,  S. F. Manzer,  Shan-Ping Mao,  Yuezhi Mao,  N. Mardirossian,  
 A. V. Marenich,  T. Markovich,  L. A. Martinez-Martinez,  S. A. Maurer,  
 N. J. Mayhall,  S. C. McKenzie,  J.-M. Mewes,  A. F. Morrison,  
 J. W. Mullinax,  K. Nanda,  T. S. Nguyen-Beck,  R. Olivares-Amaya,  
 J. A. Parkhill,  T. M. Perrine,  F. Plasser,  P. Pokhilko,  S. Prager,  
 A. Prociuk,  E. Ramos,  D. R. Rehn,  F. Rob,  M. Schneider,  N. Sergueev,  
 S. M. Sharada,  S. Sharma,  D. W. Small,  T. Stauch,  T. Stein,  
 Yu-Chuan Su,  A. J. W. Thom,  A. Tkatchenko,  T. Tsuchimochi,  N. M. Tubman,  
 L. Vogt,  M. L. Vidal,  O. Vydrov,  M. A. Watson,  J. Wenzel,  
 M. de Wergifosse,  T. A. Wesolowski,  A. White,  J. Witte,  A. Yamada,  
 Jun Yang,  K. Yao,  S. Yeganeh,  S. R. Yost,  Zhi-Qiang You,  A. Zech,  
 Igor Ying Zhang,  Xing Zhang,  Yan Zhao,  Ying Zhu,  B. R. Brooks,  
 G. K. L. Chan,  C. J. Cramer,  M. S. Gordon,  W. J. Hehre,  A. Klamt,  
 M. W. Schmidt,  C. D. Sherrill,  D. G. Truhlar,  A. Aspuru-Guzik,  R. Baer,  
 A. T. Bell,  N. A. Besley,  Jeng-Da Chai,  A. E. DePrince, III,  
 R. A. DiStasio Jr.,  A. Dreuw,  B. D. Dunietz,  T. R. Furlani,  
 Chao-Ping Hsu,  Yousung Jung,  Jing Kong,  D. S. Lambrecht,  WanZhen Liang,  
 C. Ochsenfeld,  V. A. Rassolov,  L. V. Slipchenko,  J. E. Subotnik,  
 T. Van Voorhis,  J. M. Herbert,  A. I. Krylov,  P. M. W. Gill,  M. Head-Gordon

 Contributors to earlier versions of Q-Chem not listed above: 
 R. D. Adamson,  B. Austin,  J. Baker,  G. J. O. Beran,  K. Brandhorst,  
 S. T. Brown,  E. F. C. Byrd,  A. K. Chakraborty,  C.-L. Cheng,  
 Siu Hung Chien,  D. M. Chipman,  D. L. Crittenden,  H. Dachsel,  
 R. J. Doerksen,  A. D. Dutoi,  L. Fusti-Molnar,  W. A. Goddard III,  
 A. Golubeva-Zadorozhnaya,  S. R. Gwaltney,  G. Hawkins,  A. Heyden,  
 S. Hirata,  G. Kedziora,  F. J. Keil,  C. Kelley,  Jihan Kim,  R. A. King,  
 R. Z. Khaliullin,  P. P. Korambath,  W. Kurlancheek,  A. M. Lee,  M. S. Lee,  
 S. V. Levchenko,  Ching Yeh Lin,  D. Liotard,  R. C. Lochan,  I. Lotan,  
 P. E. Maslen,  N. Nair,  D. P. O'Neill,  D. Neuhauser,  E. Neuscamman,  
 C. M. Oana,  R. Olson,  B. Peters,  R. Peverati,  P. A. Pieniazek,  
 Y. M. Rhee,  J. Ritchie,  M. A. Rohrdanz,  E. Rosta,  N. J. Russ,  
 H. F. Schaefer III,  N. E. Schultz,  N. Shenvi,  A. C. Simmonett,  A. Sodt,  
 D. Stuck,  K. S. Thanthiriwatte,  V. Vanovschi,  Tao Wang,  A. Warshel,  
 C. F. Williams,  Q. Wu,  X. Xu,  W. Zhang

 Please cite Q-Chem as follows:
 Y. Shao et al., Mol. Phys. 113, 184-215 (2015)
 DOI: 10.1080/00268976.2014.952696

 Q-Chem 5.1.1 for Intel X86 EM64T Linux

 Parts of Q-Chem use Armadillo 8.300.2 (Tropical Shenanigans).
 http://arma.sourceforge.net/

 Q-Chem begins on Tue Oct 27 23:49:31 2020  

Host: n0031.mhg0
0

     Scratch files written to /local/scratch/users/yhljason/Be_XYGJOS_aug-cc-pcVQZ.inp20201027234849//
The previous job contains 0 fragments, simply inherited here
Input Ideriv = 2
Curr. Ideriv = -1
Max.  Ideriv = 2

Checking the input file for inconsistencies... 	...done.

--------------------------------------------------------------
User input:
--------------------------------------------------------------
$molecule
read
$end

$rem
jobtype sp
exchange XYGJOS
xc_grid 000099000590
basis aug-cc-pcVQZ
aux_basis rimp2-cc-pVQZ
max_scf_cycles 200
thresh 14
scf_convergence 8
mem_total 128000
cc_memory 96000
cc_backend xm
mem_static 1500
symmetry false
sym_ignore true
scf_guess read
unrestricted false
scf_algorithm gdm
n_frozen_core 0
$end



$multipole_field
XX 0.0001
$end


--------------------------------------------------------------
 ----------------------------------------------------------------
             Standard Nuclear Orientation (Angstroms)
    I     Atom           X                Y                Z
 ----------------------------------------------------------------
    1      Be      0.0000000000     0.0000000000     0.0000000000
 ----------------------------------------------------------------
 Nuclear Repulsion Energy =     0.0000000000 hartrees
 There are        2 alpha and        2 beta electrons
 Requested basis set is aug-cc-pCVQZ
 There are 29 shells and 109 basis functions

 Total QAlloc Memory Limit 128000 MB
 Mega-Array Size      1467 MB
 MEM_STATIC part      1500 MB
 Applying Cartesian multipole field
    Component          Value
    ---------          -----
     (2,0,0)        1.00000E-04
 Requested basis set is rimp2-cc-pVQZ
 There are 30 shells and 132 basis functions
 A cutoff of  1.0D-14 yielded    435 shell pairs
 There are      6235 function pairs (     10234 Cartesian)
 
 -------------------------------------------------------
 OpenMP Integral Computing Module                       
 Release: version 1.0, May 2013, Q-Chem Inc. Pittsburgh 
 -------------------------------------------------------
 Integral Job Info:
 Integral job number is                      11
 Integral operator is                         1
 short-range coefficients                     0
 long-range coefficients              100000000
 Omega coefficients                           0
 if combine SR and LR in K                    0
 Integral screening is                        0
 Integral computing path is                   2
 max size of driver memory is           3200000
 size of driver memory is               1704330
 size of scratch memory is             18511652
 max col of scratch BK array              50625
 max len of scratch array in speh3         2114
 max len of scratch index in speh4           50
 max int batch size is                      520
 min int batch size is                       52
 fixed nKL is                                52
 max L of basis functions is                  4
 order of int derivative is                   0
 number of shells is                         29
 number of basis is                         139
 number of cartesian basis is               139
 number of contracted shell pairs           435
 number of primitive shell pairs           1203
 maxK2 (contraction) of shell pair           81
 max number of K2 of shell pair               1
 max number of CS2 of shell pair             49
 max number of PS2 of shell pair            243
 mem total for path MDJ                  609409
 -------------------------------------------------------
 Smallest overlap matrix eigenvalue = 2.05E-04
 Guess MOs from SCF MO coefficient file
 Reading MOs from coefficient file
 Reading MOs from coefficient file
 A restricted hybrid HF-DFT SCF calculation will be
 performed using Geometric Direct Minimization
 Exchange:     0.2000 Hartree-Fock + 0.0800 Slater + 0.7200 B88
 Correlation:  0.1900 VWN1RPA + 0.8100 LYP
 Using Euler-Maclaurin-Lebedev (99,590) quadrature formula
 SCF converges when RMS gradient is below 1.0E-08
Using Q-Chem read-in guess as SCF_GUESS READ specified.

 using 8 threads for integral computing
 -------------------------------------------------------
 OpenMP Integral computing Module                
 Release: version 2.0, May 2017, Q-Chem Inc. Pleasanton 
 -------------------------------------------------------
TIMEINFO->: J/JK contribution 1.49 sec.
 -------------------------------------------------------
 OpenMP BLAS3 based DFT computing Module                
 Release: version 1.0, May 2013, Q-Chem Inc. Pittsburgh 
 -------------------------------------------------------
 ---------------------------------------
  Cycle       Energy        RMS Gradient
 ---------------------------------------
    1     -14.6738186886      7.93E-04 Normal BFGS step
TIMEINFO->: J/JK contribution 3.19 sec.
    2     -14.6738198881      1.20E-04 Normal BFGS step
TIMEINFO->: J/JK contribution 3.14 sec.
    3     -14.6738199151      8.09E-06 Normal BFGS step
TIMEINFO->: J/JK contribution 2.81 sec.
    4     -14.6738199152      5.85E-07 Normal BFGS step
TIMEINFO->: J/JK contribution 2.44 sec.
    5     -14.6738199152      4.40E-08 Normal BFGS step
TIMEINFO->: J/JK contribution 2.26 sec.
    6     -14.6738199152      1.70E-09 Convergence criterion met
 ---------------------------------------
 B3LYP orbitals are now ready for the XYGJ-OS calculation.
 XYGJ-OS energy = Exch (0.7731 HF  + 0.2269 Slater) + 
                  Corr (0.2754 LYP + 0.2309 VWN1RPA + 0.4364 OS-MP2)
 SCF time:  CPU 21.94 s  wall 2.76 s
 SCF   energy in the final basis set = -14.58717422
 Total energy in the final basis set = -14.58717422
 Entering Scaled Opposite Spin MP2
 NBasAux in rimp2.F =          132

 OS-MP2 job begins now...

 SOS scaling factor =  0.4
 Form (P|Q)**(-1/2)...
 
 Form (ia|P)...
 Form BiaQ = (ia|P)*(P|Q)**(-1/2)...
 Laplace quadrature loop begins
 Laplace point 1: correlation energy     =        -0.0246038848
 Laplace point 2: correlation energy     =        -0.0215100094
 Laplace point 3: correlation energy     =        -0.0119362173
 Laplace point 4: correlation energy     =        -0.0143051972
 Laplace point 5: correlation energy     =        -0.0166218899
 Laplace point 6: correlation energy     =        -0.0104756201
 Laplace point 7: correlation energy     =        -0.0017462776
 
 singles contribution not yet available for XYGJ-OS 
 Total OS-MP2 correlation energy         =        -0.1011990963

 Total XYGJ-OS energy                    =       -14.6313375066
 
 ------------------------------------------------------------------------------
                     SOSMP2        : Timing summary (seconds)
 ------------------------------------------------------------------------------
     job step          cpu (% of tot)      sys (% of tot)     wall (% of tot)
 ------------------------------------------------------------------------------
  Form inv (P|Q)    0.1648E+00 ( 5.6)   0.2000E-05 ( 6.5)   0.2089E-01 ( 5.7)
  Form (ia|P)       0.2604E+01 (89.0)   0.2800E-04 (90.3)   0.3270E+00 (89.0)
  Form  BiaQ        0.1122E-01 ( 0.4)   0.0000E+00 ( 0.0)   0.1404E-02 ( 0.4)
  LP orbitals       0.2138E-01 ( 0.7)   0.0000E+00 ( 0.0)   0.2676E-02 ( 0.7)
  Form  X(PQ)       0.4554E-01 ( 1.6)   0.0000E+00 ( 0.0)   0.5710E-02 ( 1.6)
  Increment EMP2    0.2998E-01 ( 1.0)   0.1000E-05 ( 3.2)   0.3752E-02 ( 1.0)
 ------------------------------------------------------------------------------
   Grand Totals     0.2926E+01          0.3100E-04          0.3676E+00
 ------------------------------------------------------------------------------
 
 --------------------------------------------------------------
 
                    Orbital Energies (a.u.)
 --------------------------------------------------------------
 
 Alpha MOs
 -- Occupied --
 -4.087  -0.233
 -- Virtual --
 -0.054  -0.053  -0.053  -0.002   0.003   0.006   0.006   0.105
  0.106   0.106   0.107   0.107   0.114   0.116   0.116   0.127
  0.301   0.301   0.301   0.302   0.302   0.302   0.302   0.458
  0.458   0.458   0.458   0.458   0.526   0.526   0.526   0.619
  0.810   0.810   0.810   0.810   0.810   0.811   0.811   0.811
  0.811   0.993   0.993   0.993   0.993   0.993   0.993   0.993
  1.437   1.437   1.437   1.438   1.438   1.896   1.896   1.896
  2.329   2.329   2.329   2.329   2.329   2.329   2.329   2.329
  2.329   2.483   2.483   2.483   2.483   2.483   2.483   2.483
  3.157   4.027   4.027   4.027   4.027   4.027   7.490   7.490
  7.490  13.354  18.666  18.666  18.666  18.666  18.666  27.793
 27.793  27.793  47.772  50.073  50.073  50.073  50.073  50.073
 50.073  50.073  95.888  95.888  95.888 102.220 102.220 102.220
102.220 102.220 205.414
 --------------------------------------------------------------
 
          Ground-State Mulliken Net Atomic Charges

     Atom                 Charge (a.u.)
  ----------------------------------------
      1 Be                   -0.000000
  ----------------------------------------
  Sum of atomic charges =    -0.000000

 -----------------------------------------------------------------
                    Cartesian Multipole Moments
 -----------------------------------------------------------------
    Charge (ESU x 10^10)
                -0.0000
    Dipole Moment (Debye)
         X      -0.0000      Y      -0.0000      Z      -0.0000
       Tot       0.0000
    Quadrupole Moments (Debye-Ang)
        XX      -7.5680     XY      -0.0000     YY      -7.5370
        XZ      -0.0000     YZ      -0.0000     ZZ      -7.5370
    Octopole Moments (Debye-Ang^2)
       XXX      -0.0000    XXY      -0.0000    XYY      -0.0000
       YYY      -0.0000    XXZ      -0.0000    XYZ      -0.0000
       YYZ       0.0000    XZZ      -0.0000    YZZ      -0.0000
       ZZZ      -0.0000
    Hexadecapole Moments (Debye-Ang^3)
      XXXX     -19.5567   XXXY      -0.0000   XXYY      -6.4842
      XYYY       0.0000   YYYY     -19.3488   XXXZ       0.0000
      XXYZ       0.0000   XYYZ      -0.0000   YYYZ      -0.0000
      XXZZ      -6.4842   XYZZ      -0.0000   YYZZ      -6.4496
      XZZZ      -0.0000   YZZZ       0.0000   ZZZZ     -19.3488
 -----------------------------------------------------------------

 STANDARD THERMODYNAMIC QUANTITIES AT   298.15 K  AND     1.00 ATM

   Translational Enthalpy:        0.889 kcal/mol
   Rotational Enthalpy:           0.000 kcal/mol
   Vibrational Enthalpy:          0.000 kcal/mol
   gas constant (RT):             0.592 kcal/mol
   Translational Entropy:        32.544  cal/mol.K
   Rotational Entropy:            0.000  cal/mol.K
   Vibrational Entropy:           0.000  cal/mol.K

   Total Enthalpy:                1.481 kcal/mol
   Total Entropy:                32.544  cal/mol.K

 -----------------------------------------------------------------

Archival summary:
1\1\n0031.mhg0\SP\ProcedureUnspecified\BasisUnspecified\e1\yhljason\TueOct2723:49:342020TueOct2723:49:342020\0\\#,ProcedureUnspecified,BasisUnspecified,\\0,1\Be\\\@

 Total job time:  3.70s(wall), 29.21s(cpu) 
 Tue Oct 27 23:49:34 2020

        *************************************************************
        *                                                           *
        *  Thank you very much for using Q-Chem.  Have a nice day.  *
        *                                                           *
        *************************************************************


 
User input: 3 of 7 
 
Q-Chem Developer Version!
                  Welcome to Q-Chem
     A Quantum Leap Into The Future Of Chemistry


 Q-Chem 5.1, Q-Chem, Inc., Pleasanton, CA (2018)

 Yihan Shao,  Zhengting Gan,  E. Epifanovsky,  A. T. B. Gilbert,  M. Wormit,  
 J. Kussmann,  A. W. Lange,  A. Behn,  Jia Deng,  Xintian Feng,  D. Ghosh,  
 M. Goldey,  P. R. Horn,  L. D. Jacobson,  I. Kaliman,  T. Kus,  A. Landau,  
 Jie Liu,  E. I. Proynov,  R. M. Richard,  R. P. Steele,  E. J. Sundstrom,  
 H. L. Woodcock III,  P. M. Zimmerman,  D. Zuev,  B. Albrecht,  E. Alguire,  
 S. A. Baeppler,  D. Barton,  Z. Benda,  Y. A. Bernard,  E. J. Berquist,  
 K. B. Bravaya,  H. Burton,  D. Casanova,  Chun-Min Chang,  Yunqing Chen,  
 A. Chien,  K. D. Closser,  M. P. Coons,  S. Coriani,  S. Dasgupta,  
 A. L. Dempwolff,  M. Diedenhofen,  Hainam Do,  R. G. Edgar,  Po-Tung Fang,  
 S. Faraji,  S. Fatehi,  Qingguo Feng,  K. D. Fenk,  J. Fosso-Tande,  
 Qinghui Ge,  A. Ghysels,  G. Gidofalvi,  J. Gomes,  J. Gonthier,  A. Gunina,  
 D. Hait,  M. W. D. Hanson-Heine,  P. H. P. Harbach,  A. W. Hauser,  
 J. E. Herr,  E. G. Hohenstein,  Z. C. Holden,  Kerwin Hui,  B. C. Huynh,  
 T.-C. Jagau,  Hyunjun Ji,  B. Kaduk,  K. Khistyaev,  Jaehoon Kim,  
 P. Klunzinger,  K. Koh,  D. Kosenkov,  L. Koulias,  T. Kowalczyk,  
 C. M. Krauter,  A. Kunitsa,  Ka Un Lao,  A. Laurent,  K. V. Lawler,  
 Joonho Lee,  D. Lefrancois,  S. Lehtola,  D. S. Levine,  Yi-Pei Li,  
 You-Sheng Lin,  Fenglai Liu,  E. Livshits,  A. Luenser,  P. Manohar,  
 E. Mansoor,  S. F. Manzer,  Shan-Ping Mao,  Yuezhi Mao,  N. Mardirossian,  
 A. V. Marenich,  T. Markovich,  L. A. Martinez-Martinez,  S. A. Maurer,  
 N. J. Mayhall,  S. C. McKenzie,  J.-M. Mewes,  A. F. Morrison,  
 J. W. Mullinax,  K. Nanda,  T. S. Nguyen-Beck,  R. Olivares-Amaya,  
 J. A. Parkhill,  T. M. Perrine,  F. Plasser,  P. Pokhilko,  S. Prager,  
 A. Prociuk,  E. Ramos,  D. R. Rehn,  F. Rob,  M. Schneider,  N. Sergueev,  
 S. M. Sharada,  S. Sharma,  D. W. Small,  T. Stauch,  T. Stein,  
 Yu-Chuan Su,  A. J. W. Thom,  A. Tkatchenko,  T. Tsuchimochi,  N. M. Tubman,  
 L. Vogt,  M. L. Vidal,  O. Vydrov,  M. A. Watson,  J. Wenzel,  
 M. de Wergifosse,  T. A. Wesolowski,  A. White,  J. Witte,  A. Yamada,  
 Jun Yang,  K. Yao,  S. Yeganeh,  S. R. Yost,  Zhi-Qiang You,  A. Zech,  
 Igor Ying Zhang,  Xing Zhang,  Yan Zhao,  Ying Zhu,  B. R. Brooks,  
 G. K. L. Chan,  C. J. Cramer,  M. S. Gordon,  W. J. Hehre,  A. Klamt,  
 M. W. Schmidt,  C. D. Sherrill,  D. G. Truhlar,  A. Aspuru-Guzik,  R. Baer,  
 A. T. Bell,  N. A. Besley,  Jeng-Da Chai,  A. E. DePrince, III,  
 R. A. DiStasio Jr.,  A. Dreuw,  B. D. Dunietz,  T. R. Furlani,  
 Chao-Ping Hsu,  Yousung Jung,  Jing Kong,  D. S. Lambrecht,  WanZhen Liang,  
 C. Ochsenfeld,  V. A. Rassolov,  L. V. Slipchenko,  J. E. Subotnik,  
 T. Van Voorhis,  J. M. Herbert,  A. I. Krylov,  P. M. W. Gill,  M. Head-Gordon

 Contributors to earlier versions of Q-Chem not listed above: 
 R. D. Adamson,  B. Austin,  J. Baker,  G. J. O. Beran,  K. Brandhorst,  
 S. T. Brown,  E. F. C. Byrd,  A. K. Chakraborty,  C.-L. Cheng,  
 Siu Hung Chien,  D. M. Chipman,  D. L. Crittenden,  H. Dachsel,  
 R. J. Doerksen,  A. D. Dutoi,  L. Fusti-Molnar,  W. A. Goddard III,  
 A. Golubeva-Zadorozhnaya,  S. R. Gwaltney,  G. Hawkins,  A. Heyden,  
 S. Hirata,  G. Kedziora,  F. J. Keil,  C. Kelley,  Jihan Kim,  R. A. King,  
 R. Z. Khaliullin,  P. P. Korambath,  W. Kurlancheek,  A. M. Lee,  M. S. Lee,  
 S. V. Levchenko,  Ching Yeh Lin,  D. Liotard,  R. C. Lochan,  I. Lotan,  
 P. E. Maslen,  N. Nair,  D. P. O'Neill,  D. Neuhauser,  E. Neuscamman,  
 C. M. Oana,  R. Olson,  B. Peters,  R. Peverati,  P. A. Pieniazek,  
 Y. M. Rhee,  J. Ritchie,  M. A. Rohrdanz,  E. Rosta,  N. J. Russ,  
 H. F. Schaefer III,  N. E. Schultz,  N. Shenvi,  A. C. Simmonett,  A. Sodt,  
 D. Stuck,  K. S. Thanthiriwatte,  V. Vanovschi,  Tao Wang,  A. Warshel,  
 C. F. Williams,  Q. Wu,  X. Xu,  W. Zhang

 Please cite Q-Chem as follows:
 Y. Shao et al., Mol. Phys. 113, 184-215 (2015)
 DOI: 10.1080/00268976.2014.952696

 Q-Chem 5.1.1 for Intel X86 EM64T Linux

 Parts of Q-Chem use Armadillo 8.300.2 (Tropical Shenanigans).
 http://arma.sourceforge.net/

 Q-Chem begins on Tue Oct 27 23:49:35 2020  

Host: n0031.mhg0
0

     Scratch files written to /local/scratch/users/yhljason/Be_XYGJOS_aug-cc-pcVQZ.inp20201027234849//
The previous job contains 0 fragments, simply inherited here
Input Ideriv = 2
Curr. Ideriv = -1
Max.  Ideriv = 2

Checking the input file for inconsistencies... 	...done.

--------------------------------------------------------------
User input:
--------------------------------------------------------------
$molecule
read
$end

$rem
jobtype sp
exchange XYGJOS
xc_grid 000099000590
basis aug-cc-pcVQZ
aux_basis rimp2-cc-pVQZ
max_scf_cycles 200
thresh 14
scf_convergence 8
mem_total 128000
cc_memory 96000
cc_backend xm
mem_static 1500
symmetry false
sym_ignore true
scf_guess read
unrestricted false
scf_algorithm gdm
n_frozen_core 0
$end



$multipole_field
XX -0.0001
$end


--------------------------------------------------------------
 ----------------------------------------------------------------
             Standard Nuclear Orientation (Angstroms)
    I     Atom           X                Y                Z
 ----------------------------------------------------------------
    1      Be      0.0000000000     0.0000000000     0.0000000000
 ----------------------------------------------------------------
 Nuclear Repulsion Energy =     0.0000000000 hartrees
 There are        2 alpha and        2 beta electrons
 Requested basis set is aug-cc-pCVQZ
 There are 29 shells and 109 basis functions

 Total QAlloc Memory Limit 128000 MB
 Mega-Array Size      1467 MB
 MEM_STATIC part      1500 MB
 Applying Cartesian multipole field
    Component          Value
    ---------          -----
     (2,0,0)       -1.00000E-04
 Requested basis set is rimp2-cc-pVQZ
 There are 30 shells and 132 basis functions
 A cutoff of  1.0D-14 yielded    435 shell pairs
 There are      6235 function pairs (     10234 Cartesian)
 
 -------------------------------------------------------
 OpenMP Integral Computing Module                       
 Release: version 1.0, May 2013, Q-Chem Inc. Pittsburgh 
 -------------------------------------------------------
 Integral Job Info:
 Integral job number is                      11
 Integral operator is                         1
 short-range coefficients                     0
 long-range coefficients              100000000
 Omega coefficients                           0
 if combine SR and LR in K                    0
 Integral screening is                        0
 Integral computing path is                   2
 max size of driver memory is           3200000
 size of driver memory is               1704330
 size of scratch memory is             18511652
 max col of scratch BK array              50625
 max len of scratch array in speh3         2114
 max len of scratch index in speh4           50
 max int batch size is                      520
 min int batch size is                       52
 fixed nKL is                                52
 max L of basis functions is                  4
 order of int derivative is                   0
 number of shells is                         29
 number of basis is                         139
 number of cartesian basis is               139
 number of contracted shell pairs           435
 number of primitive shell pairs           1203
 maxK2 (contraction) of shell pair           81
 max number of K2 of shell pair               1
 max number of CS2 of shell pair             49
 max number of PS2 of shell pair            243
 mem total for path MDJ                  609409
 -------------------------------------------------------
 Smallest overlap matrix eigenvalue = 2.05E-04
 Guess MOs from SCF MO coefficient file
 Reading MOs from coefficient file
 Reading MOs from coefficient file
 A restricted hybrid HF-DFT SCF calculation will be
 performed using Geometric Direct Minimization
 Exchange:     0.2000 Hartree-Fock + 0.0800 Slater + 0.7200 B88
 Correlation:  0.1900 VWN1RPA + 0.8100 LYP
 Using Euler-Maclaurin-Lebedev (99,590) quadrature formula
 SCF converges when RMS gradient is below 1.0E-08
Using Q-Chem read-in guess as SCF_GUESS READ specified.

 using 8 threads for integral computing
 -------------------------------------------------------
 OpenMP Integral computing Module                
 Release: version 2.0, May 2017, Q-Chem Inc. Pleasanton 
 -------------------------------------------------------
TIMEINFO->: J/JK contribution 2.96 sec.
 -------------------------------------------------------
 OpenMP BLAS3 based DFT computing Module                
 Release: version 1.0, May 2013, Q-Chem Inc. Pittsburgh 
 -------------------------------------------------------
 ---------------------------------------
  Cycle       Energy        RMS Gradient
 ---------------------------------------
    1     -14.6726945911      1.58E-03 Normal BFGS step
TIMEINFO->: J/JK contribution 3.11 sec.
    2     -14.6726993916      2.43E-04 Normal BFGS step
TIMEINFO->: J/JK contribution 3.13 sec.
    3     -14.6726994975      1.63E-05 Normal BFGS step
TIMEINFO->: J/JK contribution 2.94 sec.
    4     -14.6726994982      1.16E-06 Normal BFGS step
TIMEINFO->: J/JK contribution 2.60 sec.
    5     -14.6726994982      8.74E-08 Normal BFGS step
TIMEINFO->: J/JK contribution 2.34 sec.
    6     -14.6726994982      3.32E-09 Convergence criterion met
 ---------------------------------------
 B3LYP orbitals are now ready for the XYGJ-OS calculation.
 XYGJ-OS energy = Exch (0.7731 HF  + 0.2269 Slater) + 
                  Corr (0.2754 LYP + 0.2309 VWN1RPA + 0.4364 OS-MP2)
 SCF time:  CPU 23.62 s  wall 3.05 s
 SCF   energy in the final basis set = -14.58603636
 Total energy in the final basis set = -14.58603636
 Entering Scaled Opposite Spin MP2
 NBasAux in rimp2.F =          132

 OS-MP2 job begins now...

 SOS scaling factor =  0.4
 Form (P|Q)**(-1/2)...
 
 Form (ia|P)...
 Form BiaQ = (ia|P)*(P|Q)**(-1/2)...
 Laplace quadrature loop begins
 Laplace point 1: correlation energy     =        -0.0246078799
 Laplace point 2: correlation energy     =        -0.0215183519
 Laplace point 3: correlation energy     =        -0.0119519104
 Laplace point 4: correlation energy     =        -0.0143263888
 Laplace point 5: correlation energy     =        -0.0166427403
 Laplace point 6: correlation energy     =        -0.0104839773
 Laplace point 7: correlation energy     =        -0.0017437669
 
 singles contribution not yet available for XYGJ-OS 
 Total OS-MP2 correlation energy         =        -0.1012750154

 Total XYGJ-OS energy                    =       -14.6302327770
 
 ------------------------------------------------------------------------------
                     SOSMP2        : Timing summary (seconds)
 ------------------------------------------------------------------------------
     job step          cpu (% of tot)      sys (% of tot)     wall (% of tot)
 ------------------------------------------------------------------------------
  Form inv (P|Q)    0.1624E+00 ( 5.4)   0.2000E-05 ( 6.2)   0.2056E-01 ( 5.4)
  Form (ia|P)       0.2709E+01 (89.3)   0.2900E-04 (90.6)   0.3423E+00 (89.3)
  Form  BiaQ        0.1168E-01 ( 0.4)   0.0000E+00 ( 0.0)   0.1461E-02 ( 0.4)
  LP orbitals       0.2259E-01 ( 0.7)   0.1000E-05 ( 3.1)   0.2867E-02 ( 0.7)
  Form  X(PQ)       0.4725E-01 ( 1.6)   0.0000E+00 ( 0.0)   0.5912E-02 ( 1.5)
  Increment EMP2    0.3119E-01 ( 1.0)   0.0000E+00 ( 0.0)   0.3917E-02 ( 1.0)
 ------------------------------------------------------------------------------
   Grand Totals     0.3033E+01          0.3200E-04          0.3832E+00
 ------------------------------------------------------------------------------
 
 --------------------------------------------------------------
 
                    Orbital Energies (a.u.)
 --------------------------------------------------------------
 
 Alpha MOs
 -- Occupied --
 -4.086  -0.232
 -- Virtual --
 -0.052  -0.052  -0.051   0.009   0.014   0.014   0.022   0.108
  0.108   0.109   0.109   0.109   0.118   0.118   0.120   0.131
  0.303   0.303   0.304   0.304   0.304   0.304   0.304   0.459
  0.459   0.459   0.459   0.459   0.527   0.527   0.528   0.621
  0.811   0.811   0.812   0.812   0.812   0.812   0.812   0.812
  0.812   0.994   0.994   0.994   0.994   0.994   0.994   0.994
  1.438   1.438   1.438   1.438   1.438   1.897   1.897   1.897
  2.330   2.330   2.330   2.330   2.330   2.330   2.330   2.330
  2.330   2.484   2.484   2.484   2.484   2.484   2.484   2.484
  3.158   4.028   4.028   4.028   4.028   4.028   7.491   7.491
  7.491  13.355  18.667  18.667  18.667  18.667  18.667  27.794
 27.794  27.794  47.773  50.074  50.074  50.074  50.074  50.074
 50.074  50.074  95.889  95.889  95.889 102.221 102.221 102.221
102.221 102.221 205.415
 --------------------------------------------------------------
 
          Ground-State Mulliken Net Atomic Charges

     Atom                 Charge (a.u.)
  ----------------------------------------
      1 Be                   -0.000000
  ----------------------------------------
  Sum of atomic charges =    -0.000000

 -----------------------------------------------------------------
                    Cartesian Multipole Moments
 -----------------------------------------------------------------
    Charge (ESU x 10^10)
                -0.0000
    Dipole Moment (Debye)
         X      -0.0000      Y      -0.0000      Z      -0.0000
       Tot       0.0000
    Quadrupole Moments (Debye-Ang)
        XX      -7.5025     XY       0.0000     YY      -7.5328
        XZ       0.0000     YZ      -0.0000     ZZ      -7.5328
    Octopole Moments (Debye-Ang^2)
       XXX      -0.0000    XXY      -0.0000    XYY      -0.0000
       YYY      -0.0000    XXZ      -0.0000    XYZ      -0.0000
       YYZ      -0.0000    XZZ      -0.0000    YZZ      -0.0000
       ZZZ      -0.0000
    Hexadecapole Moments (Debye-Ang^3)
      XXXX     -19.0938   XXXY      -0.0000   XXYY      -6.3982
      XYYY       0.0000   YYYY     -19.2960   XXXZ      -0.0000
      XXYZ       0.0000   XYYZ       0.0000   YYYZ      -0.0000
      XXZZ      -6.3982   XYZZ      -0.0000   YYZZ      -6.4320
      XZZZ       0.0000   YZZZ       0.0000   ZZZZ     -19.2960
 -----------------------------------------------------------------

 STANDARD THERMODYNAMIC QUANTITIES AT   298.15 K  AND     1.00 ATM

   Translational Enthalpy:        0.889 kcal/mol
   Rotational Enthalpy:           0.000 kcal/mol
   Vibrational Enthalpy:          0.000 kcal/mol
   gas constant (RT):             0.592 kcal/mol
   Translational Entropy:        32.544  cal/mol.K
   Rotational Entropy:            0.000  cal/mol.K
   Vibrational Entropy:           0.000  cal/mol.K

   Total Enthalpy:                1.481 kcal/mol
   Total Entropy:                32.544  cal/mol.K

 -----------------------------------------------------------------

Archival summary:
1\1\n0031.mhg0\SP\ProcedureUnspecified\BasisUnspecified\e1\yhljason\TueOct2723:49:392020TueOct2723:49:392020\0\\#,ProcedureUnspecified,BasisUnspecified,\\0,1\Be\\\@

 Total job time:  4.00s(wall), 30.41s(cpu) 
 Tue Oct 27 23:49:39 2020

        *************************************************************
        *                                                           *
        *  Thank you very much for using Q-Chem.  Have a nice day.  *
        *                                                           *
        *************************************************************


 
User input: 4 of 7 
 
Q-Chem Developer Version!
                  Welcome to Q-Chem
     A Quantum Leap Into The Future Of Chemistry


 Q-Chem 5.1, Q-Chem, Inc., Pleasanton, CA (2018)

 Yihan Shao,  Zhengting Gan,  E. Epifanovsky,  A. T. B. Gilbert,  M. Wormit,  
 J. Kussmann,  A. W. Lange,  A. Behn,  Jia Deng,  Xintian Feng,  D. Ghosh,  
 M. Goldey,  P. R. Horn,  L. D. Jacobson,  I. Kaliman,  T. Kus,  A. Landau,  
 Jie Liu,  E. I. Proynov,  R. M. Richard,  R. P. Steele,  E. J. Sundstrom,  
 H. L. Woodcock III,  P. M. Zimmerman,  D. Zuev,  B. Albrecht,  E. Alguire,  
 S. A. Baeppler,  D. Barton,  Z. Benda,  Y. A. Bernard,  E. J. Berquist,  
 K. B. Bravaya,  H. Burton,  D. Casanova,  Chun-Min Chang,  Yunqing Chen,  
 A. Chien,  K. D. Closser,  M. P. Coons,  S. Coriani,  S. Dasgupta,  
 A. L. Dempwolff,  M. Diedenhofen,  Hainam Do,  R. G. Edgar,  Po-Tung Fang,  
 S. Faraji,  S. Fatehi,  Qingguo Feng,  K. D. Fenk,  J. Fosso-Tande,  
 Qinghui Ge,  A. Ghysels,  G. Gidofalvi,  J. Gomes,  J. Gonthier,  A. Gunina,  
 D. Hait,  M. W. D. Hanson-Heine,  P. H. P. Harbach,  A. W. Hauser,  
 J. E. Herr,  E. G. Hohenstein,  Z. C. Holden,  Kerwin Hui,  B. C. Huynh,  
 T.-C. Jagau,  Hyunjun Ji,  B. Kaduk,  K. Khistyaev,  Jaehoon Kim,  
 P. Klunzinger,  K. Koh,  D. Kosenkov,  L. Koulias,  T. Kowalczyk,  
 C. M. Krauter,  A. Kunitsa,  Ka Un Lao,  A. Laurent,  K. V. Lawler,  
 Joonho Lee,  D. Lefrancois,  S. Lehtola,  D. S. Levine,  Yi-Pei Li,  
 You-Sheng Lin,  Fenglai Liu,  E. Livshits,  A. Luenser,  P. Manohar,  
 E. Mansoor,  S. F. Manzer,  Shan-Ping Mao,  Yuezhi Mao,  N. Mardirossian,  
 A. V. Marenich,  T. Markovich,  L. A. Martinez-Martinez,  S. A. Maurer,  
 N. J. Mayhall,  S. C. McKenzie,  J.-M. Mewes,  A. F. Morrison,  
 J. W. Mullinax,  K. Nanda,  T. S. Nguyen-Beck,  R. Olivares-Amaya,  
 J. A. Parkhill,  T. M. Perrine,  F. Plasser,  P. Pokhilko,  S. Prager,  
 A. Prociuk,  E. Ramos,  D. R. Rehn,  F. Rob,  M. Schneider,  N. Sergueev,  
 S. M. Sharada,  S. Sharma,  D. W. Small,  T. Stauch,  T. Stein,  
 Yu-Chuan Su,  A. J. W. Thom,  A. Tkatchenko,  T. Tsuchimochi,  N. M. Tubman,  
 L. Vogt,  M. L. Vidal,  O. Vydrov,  M. A. Watson,  J. Wenzel,  
 M. de Wergifosse,  T. A. Wesolowski,  A. White,  J. Witte,  A. Yamada,  
 Jun Yang,  K. Yao,  S. Yeganeh,  S. R. Yost,  Zhi-Qiang You,  A. Zech,  
 Igor Ying Zhang,  Xing Zhang,  Yan Zhao,  Ying Zhu,  B. R. Brooks,  
 G. K. L. Chan,  C. J. Cramer,  M. S. Gordon,  W. J. Hehre,  A. Klamt,  
 M. W. Schmidt,  C. D. Sherrill,  D. G. Truhlar,  A. Aspuru-Guzik,  R. Baer,  
 A. T. Bell,  N. A. Besley,  Jeng-Da Chai,  A. E. DePrince, III,  
 R. A. DiStasio Jr.,  A. Dreuw,  B. D. Dunietz,  T. R. Furlani,  
 Chao-Ping Hsu,  Yousung Jung,  Jing Kong,  D. S. Lambrecht,  WanZhen Liang,  
 C. Ochsenfeld,  V. A. Rassolov,  L. V. Slipchenko,  J. E. Subotnik,  
 T. Van Voorhis,  J. M. Herbert,  A. I. Krylov,  P. M. W. Gill,  M. Head-Gordon

 Contributors to earlier versions of Q-Chem not listed above: 
 R. D. Adamson,  B. Austin,  J. Baker,  G. J. O. Beran,  K. Brandhorst,  
 S. T. Brown,  E. F. C. Byrd,  A. K. Chakraborty,  C.-L. Cheng,  
 Siu Hung Chien,  D. M. Chipman,  D. L. Crittenden,  H. Dachsel,  
 R. J. Doerksen,  A. D. Dutoi,  L. Fusti-Molnar,  W. A. Goddard III,  
 A. Golubeva-Zadorozhnaya,  S. R. Gwaltney,  G. Hawkins,  A. Heyden,  
 S. Hirata,  G. Kedziora,  F. J. Keil,  C. Kelley,  Jihan Kim,  R. A. King,  
 R. Z. Khaliullin,  P. P. Korambath,  W. Kurlancheek,  A. M. Lee,  M. S. Lee,  
 S. V. Levchenko,  Ching Yeh Lin,  D. Liotard,  R. C. Lochan,  I. Lotan,  
 P. E. Maslen,  N. Nair,  D. P. O'Neill,  D. Neuhauser,  E. Neuscamman,  
 C. M. Oana,  R. Olson,  B. Peters,  R. Peverati,  P. A. Pieniazek,  
 Y. M. Rhee,  J. Ritchie,  M. A. Rohrdanz,  E. Rosta,  N. J. Russ,  
 H. F. Schaefer III,  N. E. Schultz,  N. Shenvi,  A. C. Simmonett,  A. Sodt,  
 D. Stuck,  K. S. Thanthiriwatte,  V. Vanovschi,  Tao Wang,  A. Warshel,  
 C. F. Williams,  Q. Wu,  X. Xu,  W. Zhang

 Please cite Q-Chem as follows:
 Y. Shao et al., Mol. Phys. 113, 184-215 (2015)
 DOI: 10.1080/00268976.2014.952696

 Q-Chem 5.1.1 for Intel X86 EM64T Linux

 Parts of Q-Chem use Armadillo 8.300.2 (Tropical Shenanigans).
 http://arma.sourceforge.net/

 Q-Chem begins on Tue Oct 27 23:49:39 2020  

Host: n0031.mhg0
0

     Scratch files written to /local/scratch/users/yhljason/Be_XYGJOS_aug-cc-pcVQZ.inp20201027234849//
The previous job contains 0 fragments, simply inherited here
Input Ideriv = 2
Curr. Ideriv = -1
Max.  Ideriv = 2

Checking the input file for inconsistencies... 	...done.

--------------------------------------------------------------
User input:
--------------------------------------------------------------
$molecule
read
$end

$rem
jobtype sp
exchange XYGJOS
xc_grid 000099000590
basis aug-cc-pcVQZ
aux_basis rimp2-cc-pVQZ
max_scf_cycles 200
thresh 14
scf_convergence 8
mem_total 128000
cc_memory 96000
cc_backend xm
mem_static 1500
symmetry false
sym_ignore true
scf_guess read
unrestricted false
scf_algorithm gdm
n_frozen_core 0
$end



$multipole_field
YY 0.0001
$end


--------------------------------------------------------------
 ----------------------------------------------------------------
             Standard Nuclear Orientation (Angstroms)
    I     Atom           X                Y                Z
 ----------------------------------------------------------------
    1      Be      0.0000000000     0.0000000000     0.0000000000
 ----------------------------------------------------------------
 Nuclear Repulsion Energy =     0.0000000000 hartrees
 There are        2 alpha and        2 beta electrons
 Requested basis set is aug-cc-pCVQZ
 There are 29 shells and 109 basis functions

 Total QAlloc Memory Limit 128000 MB
 Mega-Array Size      1467 MB
 MEM_STATIC part      1500 MB
 Applying Cartesian multipole field
    Component          Value
    ---------          -----
     (0,2,0)        1.00000E-04
 Requested basis set is rimp2-cc-pVQZ
 There are 30 shells and 132 basis functions
 A cutoff of  1.0D-14 yielded    435 shell pairs
 There are      6235 function pairs (     10234 Cartesian)
 
 -------------------------------------------------------
 OpenMP Integral Computing Module                       
 Release: version 1.0, May 2013, Q-Chem Inc. Pittsburgh 
 -------------------------------------------------------
 Integral Job Info:
 Integral job number is                      11
 Integral operator is                         1
 short-range coefficients                     0
 long-range coefficients              100000000
 Omega coefficients                           0
 if combine SR and LR in K                    0
 Integral screening is                        0
 Integral computing path is                   2
 max size of driver memory is           3200000
 size of driver memory is               1704330
 size of scratch memory is             18511652
 max col of scratch BK array              50625
 max len of scratch array in speh3         2114
 max len of scratch index in speh4           50
 max int batch size is                      520
 min int batch size is                       52
 fixed nKL is                                52
 max L of basis functions is                  4
 order of int derivative is                   0
 number of shells is                         29
 number of basis is                         139
 number of cartesian basis is               139
 number of contracted shell pairs           435
 number of primitive shell pairs           1203
 maxK2 (contraction) of shell pair           81
 max number of K2 of shell pair               1
 max number of CS2 of shell pair             49
 max number of PS2 of shell pair            243
 mem total for path MDJ                  609409
 -------------------------------------------------------
 Smallest overlap matrix eigenvalue = 2.05E-04
 Guess MOs from SCF MO coefficient file
 Reading MOs from coefficient file
 Reading MOs from coefficient file
 A restricted hybrid HF-DFT SCF calculation will be
 performed using Geometric Direct Minimization
 Exchange:     0.2000 Hartree-Fock + 0.0800 Slater + 0.7200 B88
 Correlation:  0.1900 VWN1RPA + 0.8100 LYP
 Using Euler-Maclaurin-Lebedev (99,590) quadrature formula
 SCF converges when RMS gradient is below 1.0E-08
Using Q-Chem read-in guess as SCF_GUESS READ specified.

 using 8 threads for integral computing
 -------------------------------------------------------
 OpenMP Integral computing Module                
 Release: version 2.0, May 2017, Q-Chem Inc. Pleasanton 
 -------------------------------------------------------
TIMEINFO->: J/JK contribution 2.99 sec.
 -------------------------------------------------------
 OpenMP BLAS3 based DFT computing Module                
 Release: version 1.0, May 2013, Q-Chem Inc. Pittsburgh 
 -------------------------------------------------------
 ---------------------------------------
  Cycle       Energy        RMS Gradient
 ---------------------------------------
    1     -14.6738173372      1.13E-03 Normal BFGS step
TIMEINFO->: J/JK contribution 3.25 sec.
    2     -14.6738198617      1.46E-04 Normal BFGS step
TIMEINFO->: J/JK contribution 3.10 sec.
    3     -14.6738199150      8.53E-06 Normal BFGS step
TIMEINFO->: J/JK contribution 2.91 sec.
    4     -14.6738199152      8.69E-07 Normal BFGS step
TIMEINFO->: J/JK contribution 2.73 sec.
    5     -14.6738199152      4.97E-08 Normal BFGS step
TIMEINFO->: J/JK contribution 2.28 sec.
    6     -14.6738199152      1.80E-09 Convergence criterion met
 ---------------------------------------
 B3LYP orbitals are now ready for the XYGJ-OS calculation.
 XYGJ-OS energy = Exch (0.7731 HF  + 0.2269 Slater) + 
                  Corr (0.2754 LYP + 0.2309 VWN1RPA + 0.4364 OS-MP2)
 SCF time:  CPU 23.72 s  wall 3.01 s
 SCF   energy in the final basis set = -14.58717422
 Total energy in the final basis set = -14.58717422
 Entering Scaled Opposite Spin MP2
 NBasAux in rimp2.F =          132

 OS-MP2 job begins now...

 SOS scaling factor =  0.4
 Form (P|Q)**(-1/2)...
 
 Form (ia|P)...
 Form BiaQ = (ia|P)*(P|Q)**(-1/2)...
 Laplace quadrature loop begins
 Laplace point 1: correlation energy     =        -0.0246038848
 Laplace point 2: correlation energy     =        -0.0215100094
 Laplace point 3: correlation energy     =        -0.0119362173
 Laplace point 4: correlation energy     =        -0.0143051972
 Laplace point 5: correlation energy     =        -0.0166218899
 Laplace point 6: correlation energy     =        -0.0104756201
 Laplace point 7: correlation energy     =        -0.0017462776
 
 singles contribution not yet available for XYGJ-OS 
 Total OS-MP2 correlation energy         =        -0.1011990963

 Total XYGJ-OS energy                    =       -14.6313375068
 
 ------------------------------------------------------------------------------
                     SOSMP2        : Timing summary (seconds)
 ------------------------------------------------------------------------------
     job step          cpu (% of tot)      sys (% of tot)     wall (% of tot)
 ------------------------------------------------------------------------------
  Form inv (P|Q)    0.1657E+00 ( 5.5)   0.2000E-05 ( 6.1)   0.2099E-01 ( 5.6)
  Form (ia|P)       0.2659E+01 (88.9)   0.2900E-04 (87.9)   0.3345E+00 (88.9)
  Form  BiaQ        0.1240E-01 ( 0.4)   0.0000E+00 ( 0.0)   0.1550E-02 ( 0.4)
  LP orbitals       0.2216E-01 ( 0.7)   0.0000E+00 ( 0.0)   0.2770E-02 ( 0.7)
  Form  X(PQ)       0.4753E-01 ( 1.6)   0.2000E-05 ( 6.1)   0.5947E-02 ( 1.6)
  Increment EMP2    0.3217E-01 ( 1.1)   0.0000E+00 ( 0.0)   0.4064E-02 ( 1.1)
 ------------------------------------------------------------------------------
   Grand Totals     0.2989E+01          0.3300E-04          0.3761E+00
 ------------------------------------------------------------------------------
 
 --------------------------------------------------------------
 
                    Orbital Energies (a.u.)
 --------------------------------------------------------------
 
 Alpha MOs
 -- Occupied --
 -4.087  -0.233
 -- Virtual --
 -0.054  -0.053  -0.053  -0.002   0.003   0.006   0.006   0.105
  0.106   0.106   0.107   0.107   0.114   0.116   0.116   0.127
  0.301   0.301   0.301   0.302   0.302   0.302   0.302   0.458
  0.458   0.458   0.458   0.458   0.526   0.526   0.526   0.619
  0.810   0.810   0.810   0.810   0.810   0.811   0.811   0.811
  0.811   0.993   0.993   0.993   0.993   0.993   0.993   0.993
  1.437   1.437   1.437   1.438   1.438   1.896   1.896   1.896
  2.329   2.329   2.329   2.329   2.329   2.329   2.329   2.329
  2.329   2.483   2.483   2.483   2.483   2.483   2.483   2.483
  3.157   4.027   4.027   4.027   4.027   4.027   7.490   7.490
  7.490  13.354  18.666  18.666  18.666  18.666  18.666  27.793
 27.793  27.793  47.772  50.073  50.073  50.073  50.073  50.073
 50.073  50.073  95.888  95.888  95.888 102.220 102.220 102.220
102.220 102.220 205.414
 --------------------------------------------------------------
 
          Ground-State Mulliken Net Atomic Charges

     Atom                 Charge (a.u.)
  ----------------------------------------
      1 Be                   -0.000000
  ----------------------------------------
  Sum of atomic charges =    -0.000000

 -----------------------------------------------------------------
                    Cartesian Multipole Moments
 -----------------------------------------------------------------
    Charge (ESU x 10^10)
                -0.0000
    Dipole Moment (Debye)
         X      -0.0000      Y      -0.0000      Z      -0.0000
       Tot       0.0000
    Quadrupole Moments (Debye-Ang)
        XX      -7.5370     XY       0.0000     YY      -7.5680
        XZ       0.0000     YZ       0.0000     ZZ      -7.5370
    Octopole Moments (Debye-Ang^2)
       XXX      -0.0000    XXY      -0.0000    XYY      -0.0000
       YYY      -0.0000    XXZ      -0.0000    XYZ      -0.0000
       YYZ      -0.0000    XZZ      -0.0000    YZZ      -0.0000
       ZZZ      -0.0000
    Hexadecapole Moments (Debye-Ang^3)
      XXXX     -19.3488   XXXY      -0.0000   XXYY      -6.4842
      XYYY       0.0000   YYYY     -19.5567   XXXZ       0.0000
      XXYZ       0.0000   XYYZ      -0.0000   YYYZ      -0.0000
      XXZZ      -6.4496   XYZZ      -0.0000   YYZZ      -6.4842
      XZZZ      -0.0000   YZZZ       0.0000   ZZZZ     -19.3488
 -----------------------------------------------------------------

 STANDARD THERMODYNAMIC QUANTITIES AT   298.15 K  AND     1.00 ATM

   Translational Enthalpy:        0.889 kcal/mol
   Rotational Enthalpy:           0.000 kcal/mol
   Vibrational Enthalpy:          0.000 kcal/mol
   gas constant (RT):             0.592 kcal/mol
   Translational Entropy:        32.544  cal/mol.K
   Rotational Entropy:            0.000  cal/mol.K
   Vibrational Entropy:           0.000  cal/mol.K

   Total Enthalpy:                1.481 kcal/mol
   Total Entropy:                32.544  cal/mol.K

 -----------------------------------------------------------------

Archival summary:
1\1\n0031.mhg0\SP\ProcedureUnspecified\BasisUnspecified\e1\yhljason\TueOct2723:49:432020TueOct2723:49:432020\0\\#,ProcedureUnspecified,BasisUnspecified,\\0,1\Be\\\@

 Total job time:  3.97s(wall), 30.56s(cpu) 
 Tue Oct 27 23:49:43 2020

        *************************************************************
        *                                                           *
        *  Thank you very much for using Q-Chem.  Have a nice day.  *
        *                                                           *
        *************************************************************


 
User input: 5 of 7 
 
Q-Chem Developer Version!
                  Welcome to Q-Chem
     A Quantum Leap Into The Future Of Chemistry


 Q-Chem 5.1, Q-Chem, Inc., Pleasanton, CA (2018)

 Yihan Shao,  Zhengting Gan,  E. Epifanovsky,  A. T. B. Gilbert,  M. Wormit,  
 J. Kussmann,  A. W. Lange,  A. Behn,  Jia Deng,  Xintian Feng,  D. Ghosh,  
 M. Goldey,  P. R. Horn,  L. D. Jacobson,  I. Kaliman,  T. Kus,  A. Landau,  
 Jie Liu,  E. I. Proynov,  R. M. Richard,  R. P. Steele,  E. J. Sundstrom,  
 H. L. Woodcock III,  P. M. Zimmerman,  D. Zuev,  B. Albrecht,  E. Alguire,  
 S. A. Baeppler,  D. Barton,  Z. Benda,  Y. A. Bernard,  E. J. Berquist,  
 K. B. Bravaya,  H. Burton,  D. Casanova,  Chun-Min Chang,  Yunqing Chen,  
 A. Chien,  K. D. Closser,  M. P. Coons,  S. Coriani,  S. Dasgupta,  
 A. L. Dempwolff,  M. Diedenhofen,  Hainam Do,  R. G. Edgar,  Po-Tung Fang,  
 S. Faraji,  S. Fatehi,  Qingguo Feng,  K. D. Fenk,  J. Fosso-Tande,  
 Qinghui Ge,  A. Ghysels,  G. Gidofalvi,  J. Gomes,  J. Gonthier,  A. Gunina,  
 D. Hait,  M. W. D. Hanson-Heine,  P. H. P. Harbach,  A. W. Hauser,  
 J. E. Herr,  E. G. Hohenstein,  Z. C. Holden,  Kerwin Hui,  B. C. Huynh,  
 T.-C. Jagau,  Hyunjun Ji,  B. Kaduk,  K. Khistyaev,  Jaehoon Kim,  
 P. Klunzinger,  K. Koh,  D. Kosenkov,  L. Koulias,  T. Kowalczyk,  
 C. M. Krauter,  A. Kunitsa,  Ka Un Lao,  A. Laurent,  K. V. Lawler,  
 Joonho Lee,  D. Lefrancois,  S. Lehtola,  D. S. Levine,  Yi-Pei Li,  
 You-Sheng Lin,  Fenglai Liu,  E. Livshits,  A. Luenser,  P. Manohar,  
 E. Mansoor,  S. F. Manzer,  Shan-Ping Mao,  Yuezhi Mao,  N. Mardirossian,  
 A. V. Marenich,  T. Markovich,  L. A. Martinez-Martinez,  S. A. Maurer,  
 N. J. Mayhall,  S. C. McKenzie,  J.-M. Mewes,  A. F. Morrison,  
 J. W. Mullinax,  K. Nanda,  T. S. Nguyen-Beck,  R. Olivares-Amaya,  
 J. A. Parkhill,  T. M. Perrine,  F. Plasser,  P. Pokhilko,  S. Prager,  
 A. Prociuk,  E. Ramos,  D. R. Rehn,  F. Rob,  M. Schneider,  N. Sergueev,  
 S. M. Sharada,  S. Sharma,  D. W. Small,  T. Stauch,  T. Stein,  
 Yu-Chuan Su,  A. J. W. Thom,  A. Tkatchenko,  T. Tsuchimochi,  N. M. Tubman,  
 L. Vogt,  M. L. Vidal,  O. Vydrov,  M. A. Watson,  J. Wenzel,  
 M. de Wergifosse,  T. A. Wesolowski,  A. White,  J. Witte,  A. Yamada,  
 Jun Yang,  K. Yao,  S. Yeganeh,  S. R. Yost,  Zhi-Qiang You,  A. Zech,  
 Igor Ying Zhang,  Xing Zhang,  Yan Zhao,  Ying Zhu,  B. R. Brooks,  
 G. K. L. Chan,  C. J. Cramer,  M. S. Gordon,  W. J. Hehre,  A. Klamt,  
 M. W. Schmidt,  C. D. Sherrill,  D. G. Truhlar,  A. Aspuru-Guzik,  R. Baer,  
 A. T. Bell,  N. A. Besley,  Jeng-Da Chai,  A. E. DePrince, III,  
 R. A. DiStasio Jr.,  A. Dreuw,  B. D. Dunietz,  T. R. Furlani,  
 Chao-Ping Hsu,  Yousung Jung,  Jing Kong,  D. S. Lambrecht,  WanZhen Liang,  
 C. Ochsenfeld,  V. A. Rassolov,  L. V. Slipchenko,  J. E. Subotnik,  
 T. Van Voorhis,  J. M. Herbert,  A. I. Krylov,  P. M. W. Gill,  M. Head-Gordon

 Contributors to earlier versions of Q-Chem not listed above: 
 R. D. Adamson,  B. Austin,  J. Baker,  G. J. O. Beran,  K. Brandhorst,  
 S. T. Brown,  E. F. C. Byrd,  A. K. Chakraborty,  C.-L. Cheng,  
 Siu Hung Chien,  D. M. Chipman,  D. L. Crittenden,  H. Dachsel,  
 R. J. Doerksen,  A. D. Dutoi,  L. Fusti-Molnar,  W. A. Goddard III,  
 A. Golubeva-Zadorozhnaya,  S. R. Gwaltney,  G. Hawkins,  A. Heyden,  
 S. Hirata,  G. Kedziora,  F. J. Keil,  C. Kelley,  Jihan Kim,  R. A. King,  
 R. Z. Khaliullin,  P. P. Korambath,  W. Kurlancheek,  A. M. Lee,  M. S. Lee,  
 S. V. Levchenko,  Ching Yeh Lin,  D. Liotard,  R. C. Lochan,  I. Lotan,  
 P. E. Maslen,  N. Nair,  D. P. O'Neill,  D. Neuhauser,  E. Neuscamman,  
 C. M. Oana,  R. Olson,  B. Peters,  R. Peverati,  P. A. Pieniazek,  
 Y. M. Rhee,  J. Ritchie,  M. A. Rohrdanz,  E. Rosta,  N. J. Russ,  
 H. F. Schaefer III,  N. E. Schultz,  N. Shenvi,  A. C. Simmonett,  A. Sodt,  
 D. Stuck,  K. S. Thanthiriwatte,  V. Vanovschi,  Tao Wang,  A. Warshel,  
 C. F. Williams,  Q. Wu,  X. Xu,  W. Zhang

 Please cite Q-Chem as follows:
 Y. Shao et al., Mol. Phys. 113, 184-215 (2015)
 DOI: 10.1080/00268976.2014.952696

 Q-Chem 5.1.1 for Intel X86 EM64T Linux

 Parts of Q-Chem use Armadillo 8.300.2 (Tropical Shenanigans).
 http://arma.sourceforge.net/

 Q-Chem begins on Tue Oct 27 23:49:43 2020  

Host: n0031.mhg0
0

     Scratch files written to /local/scratch/users/yhljason/Be_XYGJOS_aug-cc-pcVQZ.inp20201027234849//
The previous job contains 0 fragments, simply inherited here
Input Ideriv = 2
Curr. Ideriv = -1
Max.  Ideriv = 2

Checking the input file for inconsistencies... 	...done.

--------------------------------------------------------------
User input:
--------------------------------------------------------------
$molecule
read
$end

$rem
jobtype sp
exchange XYGJOS
xc_grid 000099000590
basis aug-cc-pcVQZ
aux_basis rimp2-cc-pVQZ
max_scf_cycles 200
thresh 14
scf_convergence 8
mem_total 128000
cc_memory 96000
cc_backend xm
mem_static 1500
symmetry false
sym_ignore true
scf_guess read
unrestricted false
scf_algorithm gdm
n_frozen_core 0
$end



$multipole_field
YY -0.0001
$end


--------------------------------------------------------------
 ----------------------------------------------------------------
             Standard Nuclear Orientation (Angstroms)
    I     Atom           X                Y                Z
 ----------------------------------------------------------------
    1      Be      0.0000000000     0.0000000000     0.0000000000
 ----------------------------------------------------------------
 Nuclear Repulsion Energy =     0.0000000000 hartrees
 There are        2 alpha and        2 beta electrons
 Requested basis set is aug-cc-pCVQZ
 There are 29 shells and 109 basis functions

 Total QAlloc Memory Limit 128000 MB
 Mega-Array Size      1467 MB
 MEM_STATIC part      1500 MB
 Applying Cartesian multipole field
    Component          Value
    ---------          -----
     (0,2,0)       -1.00000E-04
 Requested basis set is rimp2-cc-pVQZ
 There are 30 shells and 132 basis functions
 A cutoff of  1.0D-14 yielded    435 shell pairs
 There are      6235 function pairs (     10234 Cartesian)
 
 -------------------------------------------------------
 OpenMP Integral Computing Module                       
 Release: version 1.0, May 2013, Q-Chem Inc. Pittsburgh 
 -------------------------------------------------------
 Integral Job Info:
 Integral job number is                      11
 Integral operator is                         1
 short-range coefficients                     0
 long-range coefficients              100000000
 Omega coefficients                           0
 if combine SR and LR in K                    0
 Integral screening is                        0
 Integral computing path is                   2
 max size of driver memory is           3200000
 size of driver memory is               1704330
 size of scratch memory is             18511652
 max col of scratch BK array              50625
 max len of scratch array in speh3         2114
 max len of scratch index in speh4           50
 max int batch size is                      520
 min int batch size is                       52
 fixed nKL is                                52
 max L of basis functions is                  4
 order of int derivative is                   0
 number of shells is                         29
 number of basis is                         139
 number of cartesian basis is               139
 number of contracted shell pairs           435
 number of primitive shell pairs           1203
 maxK2 (contraction) of shell pair           81
 max number of K2 of shell pair               1
 max number of CS2 of shell pair             49
 max number of PS2 of shell pair            243
 mem total for path MDJ                  609409
 -------------------------------------------------------
 Smallest overlap matrix eigenvalue = 2.05E-04
 Guess MOs from SCF MO coefficient file
 Reading MOs from coefficient file
 Reading MOs from coefficient file
 A restricted hybrid HF-DFT SCF calculation will be
 performed using Geometric Direct Minimization
 Exchange:     0.2000 Hartree-Fock + 0.0800 Slater + 0.7200 B88
 Correlation:  0.1900 VWN1RPA + 0.8100 LYP
 Using Euler-Maclaurin-Lebedev (99,590) quadrature formula
 SCF converges when RMS gradient is below 1.0E-08
Using Q-Chem read-in guess as SCF_GUESS READ specified.

 using 8 threads for integral computing
 -------------------------------------------------------
 OpenMP Integral computing Module                
 Release: version 2.0, May 2017, Q-Chem Inc. Pleasanton 
 -------------------------------------------------------
TIMEINFO->: J/JK contribution 3.23 sec.
 -------------------------------------------------------
 OpenMP BLAS3 based DFT computing Module                
 Release: version 1.0, May 2013, Q-Chem Inc. Pittsburgh 
 -------------------------------------------------------
 ---------------------------------------
  Cycle       Energy        RMS Gradient
 ---------------------------------------
    1     -14.6726945911      1.58E-03 Normal BFGS step
TIMEINFO->: J/JK contribution 3.20 sec.
    2     -14.6726993916      2.43E-04 Normal BFGS step
TIMEINFO->: J/JK contribution 3.12 sec.
    3     -14.6726994975      1.63E-05 Normal BFGS step
TIMEINFO->: J/JK contribution 2.95 sec.
    4     -14.6726994982      1.16E-06 Normal BFGS step
TIMEINFO->: J/JK contribution 2.61 sec.
    5     -14.6726994982      8.74E-08 Normal BFGS step
TIMEINFO->: J/JK contribution 2.33 sec.
    6     -14.6726994982      3.32E-09 Convergence criterion met
 ---------------------------------------
 B3LYP orbitals are now ready for the XYGJ-OS calculation.
 XYGJ-OS energy = Exch (0.7731 HF  + 0.2269 Slater) + 
                  Corr (0.2754 LYP + 0.2309 VWN1RPA + 0.4364 OS-MP2)
 SCF time:  CPU 24.08 s  wall 3.03 s
 SCF   energy in the final basis set = -14.58603636
 Total energy in the final basis set = -14.58603636
 Entering Scaled Opposite Spin MP2
 NBasAux in rimp2.F =          132

 OS-MP2 job begins now...

 SOS scaling factor =  0.4
 Form (P|Q)**(-1/2)...
 
 Form (ia|P)...
 Form BiaQ = (ia|P)*(P|Q)**(-1/2)...
 Laplace quadrature loop begins
 Laplace point 1: correlation energy     =        -0.0246078799
 Laplace point 2: correlation energy     =        -0.0215183519
 Laplace point 3: correlation energy     =        -0.0119519104
 Laplace point 4: correlation energy     =        -0.0143263888
 Laplace point 5: correlation energy     =        -0.0166427403
 Laplace point 6: correlation energy     =        -0.0104839773
 Laplace point 7: correlation energy     =        -0.0017437669
 
 singles contribution not yet available for XYGJ-OS 
 Total OS-MP2 correlation energy         =        -0.1012750154

 Total XYGJ-OS energy                    =       -14.6302327770
 
 ------------------------------------------------------------------------------
                     SOSMP2        : Timing summary (seconds)
 ------------------------------------------------------------------------------
     job step          cpu (% of tot)      sys (% of tot)     wall (% of tot)
 ------------------------------------------------------------------------------
  Form inv (P|Q)    0.1669E+00 ( 5.7)   0.2000E-05 ( 6.5)   0.2111E-01 ( 5.7)
  Form (ia|P)       0.2606E+01 (88.9)   0.2700E-04 (87.1)   0.3274E+00 (88.8)
  Form  BiaQ        0.1131E-01 ( 0.4)   0.0000E+00 ( 0.0)   0.1434E-02 ( 0.4)
  LP orbitals       0.2166E-01 ( 0.7)   0.0000E+00 ( 0.0)   0.2712E-02 ( 0.7)
  Form  X(PQ)       0.4681E-01 ( 1.6)   0.0000E+00 ( 0.0)   0.5823E-02 ( 1.6)
  Increment EMP2    0.3019E-01 ( 1.0)   0.1000E-05 ( 3.2)   0.3791E-02 ( 1.0)
 ------------------------------------------------------------------------------
   Grand Totals     0.2932E+01          0.3100E-04          0.3686E+00
 ------------------------------------------------------------------------------
 
 --------------------------------------------------------------
 
                    Orbital Energies (a.u.)
 --------------------------------------------------------------
 
 Alpha MOs
 -- Occupied --
 -4.086  -0.232
 -- Virtual --
 -0.052  -0.052  -0.051   0.009   0.014   0.014   0.022   0.108
  0.108   0.109   0.109   0.109   0.118   0.118   0.120   0.131
  0.303   0.303   0.304   0.304   0.304   0.304   0.304   0.459
  0.459   0.459   0.459   0.459   0.527   0.527   0.528   0.621
  0.811   0.811   0.812   0.812   0.812   0.812   0.812   0.812
  0.812   0.994   0.994   0.994   0.994   0.994   0.994   0.994
  1.438   1.438   1.438   1.438   1.438   1.897   1.897   1.897
  2.330   2.330   2.330   2.330   2.330   2.330   2.330   2.330
  2.330   2.484   2.484   2.484   2.484   2.484   2.484   2.484
  3.158   4.028   4.028   4.028   4.028   4.028   7.491   7.491
  7.491  13.355  18.667  18.667  18.667  18.667  18.667  27.794
 27.794  27.794  47.773  50.074  50.074  50.074  50.074  50.074
 50.074  50.074  95.889  95.889  95.889 102.221 102.221 102.221
102.221 102.221 205.415
 --------------------------------------------------------------
 
          Ground-State Mulliken Net Atomic Charges

     Atom                 Charge (a.u.)
  ----------------------------------------
      1 Be                   -0.000000
  ----------------------------------------
  Sum of atomic charges =    -0.000000

 -----------------------------------------------------------------
                    Cartesian Multipole Moments
 -----------------------------------------------------------------
    Charge (ESU x 10^10)
                -0.0000
    Dipole Moment (Debye)
         X      -0.0000      Y      -0.0000      Z      -0.0000
       Tot       0.0000
    Quadrupole Moments (Debye-Ang)
        XX      -7.5328     XY      -0.0000     YY      -7.5025
        XZ      -0.0000     YZ       0.0000     ZZ      -7.5328
    Octopole Moments (Debye-Ang^2)
       XXX       0.0000    XXY      -0.0000    XYY      -0.0000
       YYY      -0.0000    XXZ      -0.0000    XYZ      -0.0000
       YYZ      -0.0000    XZZ      -0.0000    YZZ      -0.0000
       ZZZ      -0.0000
    Hexadecapole Moments (Debye-Ang^3)
      XXXX     -19.2960   XXXY      -0.0000   XXYY      -6.3982
      XYYY       0.0000   YYYY     -19.0938   XXXZ       0.0000
      XXYZ       0.0000   XYYZ       0.0000   YYYZ      -0.0000
      XXZZ      -6.4320   XYZZ      -0.0000   YYZZ      -6.3982
      XZZZ      -0.0000   YZZZ       0.0000   ZZZZ     -19.2960
 -----------------------------------------------------------------

 STANDARD THERMODYNAMIC QUANTITIES AT   298.15 K  AND     1.00 ATM

   Translational Enthalpy:        0.889 kcal/mol
   Rotational Enthalpy:           0.000 kcal/mol
   Vibrational Enthalpy:          0.000 kcal/mol
   gas constant (RT):             0.592 kcal/mol
   Translational Entropy:        32.544  cal/mol.K
   Rotational Entropy:            0.000  cal/mol.K
   Vibrational Entropy:           0.000  cal/mol.K

   Total Enthalpy:                1.481 kcal/mol
   Total Entropy:                32.544  cal/mol.K

 -----------------------------------------------------------------

Archival summary:
1\1\n0031.mhg0\SP\ProcedureUnspecified\BasisUnspecified\e1\yhljason\TueOct2723:49:472020TueOct2723:49:472020\0\\#,ProcedureUnspecified,BasisUnspecified,\\0,1\Be\\\@

 Total job time:  3.97s(wall), 31.12s(cpu) 
 Tue Oct 27 23:49:47 2020

        *************************************************************
        *                                                           *
        *  Thank you very much for using Q-Chem.  Have a nice day.  *
        *                                                           *
        *************************************************************


 
User input: 6 of 7 
 
Q-Chem Developer Version!
                  Welcome to Q-Chem
     A Quantum Leap Into The Future Of Chemistry


 Q-Chem 5.1, Q-Chem, Inc., Pleasanton, CA (2018)

 Yihan Shao,  Zhengting Gan,  E. Epifanovsky,  A. T. B. Gilbert,  M. Wormit,  
 J. Kussmann,  A. W. Lange,  A. Behn,  Jia Deng,  Xintian Feng,  D. Ghosh,  
 M. Goldey,  P. R. Horn,  L. D. Jacobson,  I. Kaliman,  T. Kus,  A. Landau,  
 Jie Liu,  E. I. Proynov,  R. M. Richard,  R. P. Steele,  E. J. Sundstrom,  
 H. L. Woodcock III,  P. M. Zimmerman,  D. Zuev,  B. Albrecht,  E. Alguire,  
 S. A. Baeppler,  D. Barton,  Z. Benda,  Y. A. Bernard,  E. J. Berquist,  
 K. B. Bravaya,  H. Burton,  D. Casanova,  Chun-Min Chang,  Yunqing Chen,  
[...]
  Form  BiaQ        0.1168E-01 ( 0.4)   0.0000E+00 ( 0.0)   0.1461E-02 ( 0.4)
  LP orbitals       0.2174E-01 ( 0.7)   0.1000E-05 ( 3.6)   0.2723E-02 ( 0.7)
  Form  X(PQ)       0.4421E-01 ( 1.5)   0.0000E+00 ( 0.0)   0.5550E-02 ( 1.5)
  Increment EMP2    0.3123E-01 ( 1.1)   0.0000E+00 ( 0.0)   0.3906E-02 ( 1.0)
 ------------------------------------------------------------------------------
   Grand Totals     0.2962E+01          0.2800E-04          0.3727E+00
 ------------------------------------------------------------------------------
 
 --------------------------------------------------------------
 
                    Orbital Energies (a.u.)
 --------------------------------------------------------------
 
 Alpha MOs
 -- Occupied --
 -4.087  -0.233
 -- Virtual --
 -0.054  -0.053  -0.053  -0.002   0.003   0.006   0.006   0.105
  0.106   0.106   0.107   0.107   0.114   0.116   0.116   0.127
  0.301   0.301   0.301   0.302   0.302   0.302   0.302   0.458
  0.458   0.458   0.458   0.458   0.526   0.526   0.526   0.619
  0.810   0.810   0.810   0.810   0.810   0.811   0.811   0.811
  0.811   0.993   0.993   0.993   0.993   0.993   0.993   0.993
  1.437   1.437   1.437   1.438   1.438   1.896   1.896   1.896
  2.329   2.329   2.329   2.329   2.329   2.329   2.329   2.329
  2.329   2.483   2.483   2.483   2.483   2.483   2.483   2.483
  3.157   4.027   4.027   4.027   4.027   4.027   7.490   7.490
  7.490  13.354  18.666  18.666  18.666  18.666  18.666  27.793
 27.793  27.793  47.772  50.073  50.073  50.073  50.073  50.073
 50.073  50.073  95.888  95.888  95.888 102.220 102.220 102.220
102.220 102.220 205.414
 --------------------------------------------------------------
 
          Ground-State Mulliken Net Atomic Charges

     Atom                 Charge (a.u.)
  ----------------------------------------
      1 Be                   -0.000000
  ----------------------------------------
  Sum of atomic charges =    -0.000000

 -----------------------------------------------------------------
                    Cartesian Multipole Moments
 -----------------------------------------------------------------
    Charge (ESU x 10^10)
                -0.0000
    Dipole Moment (Debye)
         X      -0.0000      Y      -0.0000      Z      -0.0000
       Tot       0.0000
    Quadrupole Moments (Debye-Ang)
        XX      -7.5370     XY       0.0000     YY      -7.5370
        XZ       0.0000     YZ       0.0000     ZZ      -7.5680
    Octopole Moments (Debye-Ang^2)
       XXX      -0.0000    XXY      -0.0000    XYY      -0.0000
       YYY      -0.0000    XXZ      -0.0000    XYZ      -0.0000
       YYZ      -0.0000    XZZ      -0.0000    YZZ      -0.0000
       ZZZ      -0.0000
    Hexadecapole Moments (Debye-Ang^3)
      XXXX     -19.3488   XXXY       0.0000   XXYY      -6.4496
      XYYY       0.0000   YYYY     -19.3488   XXXZ       0.0000
      XXYZ       0.0000   XYYZ      -0.0000   YYYZ      -0.0000
      XXZZ      -6.4842   XYZZ      -0.0000   YYZZ      -6.4842
      XZZZ      -0.0000   YZZZ      -0.0000   ZZZZ     -19.5567
 -----------------------------------------------------------------

 STANDARD THERMODYNAMIC QUANTITIES AT   298.15 K  AND     1.00 ATM

   Translational Enthalpy:        0.889 kcal/mol
   Rotational Enthalpy:           0.000 kcal/mol
   Vibrational Enthalpy:          0.000 kcal/mol
   gas constant (RT):             0.592 kcal/mol
   Translational Entropy:        32.544  cal/mol.K
   Rotational Entropy:            0.000  cal/mol.K
   Vibrational Entropy:           0.000  cal/mol.K

   Total Enthalpy:                1.481 kcal/mol
   Total Entropy:                32.544  cal/mol.K

 -----------------------------------------------------------------

Archival summary:
1\1\n0031.mhg0\SP\ProcedureUnspecified\BasisUnspecified\e1\yhljason\TueOct2723:49:512020TueOct2723:49:512020\0\\#,ProcedureUnspecified,BasisUnspecified,\\0,1\Be\\\@

 Total job time:  3.95s(wall), 31.20s(cpu) 
 Tue Oct 27 23:49:51 2020

        *************************************************************
        *                                                           *
        *  Thank you very much for using Q-Chem.  Have a nice day.  *
        *                                                           *
        *************************************************************


 
User input: 7 of 7 
 
Q-Chem Developer Version!
                  Welcome to Q-Chem
     A Quantum Leap Into The Future Of Chemistry


 Q-Chem 5.1, Q-Chem, Inc., Pleasanton, CA (2018)

 Yihan Shao,  Zhengting Gan,  E. Epifanovsky,  A. T. B. Gilbert,  M. Wormit,  
 J. Kussmann,  A. W. Lange,  A. Behn,  Jia Deng,  Xintian Feng,  D. Ghosh,  
 M. Goldey,  P. R. Horn,  L. D. Jacobson,  I. Kaliman,  T. Kus,  A. Landau,  
 Jie Liu,  E. I. Proynov,  R. M. Richard,  R. P. Steele,  E. J. Sundstrom,  
 H. L. Woodcock III,  P. M. Zimmerman,  D. Zuev,  B. Albrecht,  E. Alguire,  
 S. A. Baeppler,  D. Barton,  Z. Benda,  Y. A. Bernard,  E. J. Berquist,  
 K. B. Bravaya,  H. Burton,  D. Casanova,  Chun-Min Chang,  Yunqing Chen,  
 A. Chien,  K. D. Closser,  M. P. Coons,  S. Coriani,  S. Dasgupta,  
 A. L. Dempwolff,  M. Diedenhofen,  Hainam Do,  R. G. Edgar,  Po-Tung Fang,  
 S. Faraji,  S. Fatehi,  Qingguo Feng,  K. D. Fenk,  J. Fosso-Tande,  
 Qinghui Ge,  A. Ghysels,  G. Gidofalvi,  J. Gomes,  J. Gonthier,  A. Gunina,  
 D. Hait,  M. W. D. Hanson-Heine,  P. H. P. Harbach,  A. W. Hauser,  
 J. E. Herr,  E. G. Hohenstein,  Z. C. Holden,  Kerwin Hui,  B. C. Huynh,  
 T.-C. Jagau,  Hyunjun Ji,  B. Kaduk,  K. Khistyaev,  Jaehoon Kim,  
 P. Klunzinger,  K. Koh,  D. Kosenkov,  L. Koulias,  T. Kowalczyk,  
 C. M. Krauter,  A. Kunitsa,  Ka Un Lao,  A. Laurent,  K. V. Lawler,  
 Joonho Lee,  D. Lefrancois,  S. Lehtola,  D. S. Levine,  Yi-Pei Li,  
 You-Sheng Lin,  Fenglai Liu,  E. Livshits,  A. Luenser,  P. Manohar,  
 E. Mansoor,  S. F. Manzer,  Shan-Ping Mao,  Yuezhi Mao,  N. Mardirossian,  
 A. V. Marenich,  T. Markovich,  L. A. Martinez-Martinez,  S. A. Maurer,  
 N. J. Mayhall,  S. C. McKenzie,  J.-M. Mewes,  A. F. Morrison,  
 J. W. Mullinax,  K. Nanda,  T. S. Nguyen-Beck,  R. Olivares-Amaya,  
 J. A. Parkhill,  T. M. Perrine,  F. Plasser,  P. Pokhilko,  S. Prager,  
 A. Prociuk,  E. Ramos,  D. R. Rehn,  F. Rob,  M. Schneider,  N. Sergueev,  
 S. M. Sharada,  S. Sharma,  D. W. Small,  T. Stauch,  T. Stein,  
 Yu-Chuan Su,  A. J. W. Thom,  A. Tkatchenko,  T. Tsuchimochi,  N. M. Tubman,  
 L. Vogt,  M. L. Vidal,  O. Vydrov,  M. A. Watson,  J. Wenzel,  
 M. de Wergifosse,  T. A. Wesolowski,  A. White,  J. Witte,  A. Yamada,  
 Jun Yang,  K. Yao,  S. Yeganeh,  S. R. Yost,  Zhi-Qiang You,  A. Zech,  
 Igor Ying Zhang,  Xing Zhang,  Yan Zhao,  Ying Zhu,  B. R. Brooks,  
 G. K. L. Chan,  C. J. Cramer,  M. S. Gordon,  W. J. Hehre,  A. Klamt,  
 M. W. Schmidt,  C. D. Sherrill,  D. G. Truhlar,  A. Aspuru-Guzik,  R. Baer,  
 A. T. Bell,  N. A. Besley,  Jeng-Da Chai,  A. E. DePrince, III,  
 R. A. DiStasio Jr.,  A. Dreuw,  B. D. Dunietz,  T. R. Furlani,  
 Chao-Ping Hsu,  Yousung Jung,  Jing Kong,  D. S. Lambrecht,  WanZhen Liang,  
 C. Ochsenfeld,  V. A. Rassolov,  L. V. Slipchenko,  J. E. Subotnik,  
 T. Van Voorhis,  J. M. Herbert,  A. I. Krylov,  P. M. W. Gill,  M. Head-Gordon

 Contributors to earlier versions of Q-Chem not listed above: 
 R. D. Adamson,  B. Austin,  J. Baker,  G. J. O. Beran,  K. Brandhorst,  
 S. T. Brown,  E. F. C. Byrd,  A. K. Chakraborty,  C.-L. Cheng,  
 Siu Hung Chien,  D. M. Chipman,  D. L. Crittenden,  H. Dachsel,  
 R. J. Doerksen,  A. D. Dutoi,  L. Fusti-Molnar,  W. A. Goddard III,  
 A. Golubeva-Zadorozhnaya,  S. R. Gwaltney,  G. Hawkins,  A. Heyden,  
 S. Hirata,  G. Kedziora,  F. J. Keil,  C. Kelley,  Jihan Kim,  R. A. King,  
 R. Z. Khaliullin,  P. P. Korambath,  W. Kurlancheek,  A. M. Lee,  M. S. Lee,  
 S. V. Levchenko,  Ching Yeh Lin,  D. Liotard,  R. C. Lochan,  I. Lotan,  
 P. E. Maslen,  N. Nair,  D. P. O'Neill,  D. Neuhauser,  E. Neuscamman,  
 C. M. Oana,  R. Olson,  B. Peters,  R. Peverati,  P. A. Pieniazek,  
 Y. M. Rhee,  J. Ritchie,  M. A. Rohrdanz,  E. Rosta,  N. J. Russ,  
 H. F. Schaefer III,  N. E. Schultz,  N. Shenvi,  A. C. Simmonett,  A. Sodt,  
 D. Stuck,  K. S. Thanthiriwatte,  V. Vanovschi,  Tao Wang,  A. Warshel,  
 C. F. Williams,  Q. Wu,  X. Xu,  W. Zhang

 Please cite Q-Chem as follows:
 Y. Shao et al., Mol. Phys. 113, 184-215 (2015)
 DOI: 10.1080/00268976.2014.952696

 Q-Chem 5.1.1 for Intel X86 EM64T Linux

 Parts of Q-Chem use Armadillo 8.300.2 (Tropical Shenanigans).
 http://arma.sourceforge.net/

 Q-Chem begins on Tue Oct 27 23:49:51 2020  

Host: n0031.mhg0
0

     Scratch files written to /local/scratch/users/yhljason/Be_XYGJOS_aug-cc-pcVQZ.inp20201027234849//
The previous job contains 0 fragments, simply inherited here
Input Ideriv = 2
Curr. Ideriv = -1
Max.  Ideriv = 2

Checking the input file for inconsistencies... 	...done.

--------------------------------------------------------------
User input:
--------------------------------------------------------------
$molecule
read
$end

$rem
jobtype sp
exchange XYGJOS
xc_grid 000099000590
basis aug-cc-pcVQZ
aux_basis rimp2-cc-pVQZ
max_scf_cycles 200
thresh 14
scf_convergence 8
mem_total 128000
cc_memory 96000
cc_backend xm
mem_static 1500
symmetry false
sym_ignore true
scf_guess read
unrestricted false
scf_algorithm gdm
n_frozen_core 0
$end



$multipole_field
ZZ -0.0001
$end

--------------------------------------------------------------
 ----------------------------------------------------------------
             Standard Nuclear Orientation (Angstroms)
    I     Atom           X                Y                Z
 ----------------------------------------------------------------
    1      Be      0.0000000000     0.0000000000     0.0000000000
 ----------------------------------------------------------------
 Nuclear Repulsion Energy =     0.0000000000 hartrees
 There are        2 alpha and        2 beta electrons
 Requested basis set is aug-cc-pCVQZ
 There are 29 shells and 109 basis functions

 Total QAlloc Memory Limit 128000 MB
 Mega-Array Size      1467 MB
 MEM_STATIC part      1500 MB
 Applying Cartesian multipole field
    Component          Value
    ---------          -----
     (0,0,2)       -1.00000E-04
 Requested basis set is rimp2-cc-pVQZ
 There are 30 shells and 132 basis functions
 A cutoff of  1.0D-14 yielded    435 shell pairs
 There are      6235 function pairs (     10234 Cartesian)
 
 -------------------------------------------------------
 OpenMP Integral Computing Module                       
 Release: version 1.0, May 2013, Q-Chem Inc. Pittsburgh 
 -------------------------------------------------------
 Integral Job Info:
 Integral job number is                      11
 Integral operator is                         1
 short-range coefficients                     0
 long-range coefficients              100000000
 Omega coefficients                           0
 if combine SR and LR in K                    0
 Integral screening is                        0
 Integral computing path is                   2
 max size of driver memory is           3200000
 size of driver memory is               1704330
 size of scratch memory is             18511652
 max col of scratch BK array              50625
 max len of scratch array in speh3         2114
 max len of scratch index in speh4           50
 max int batch size is                      520
 min int batch size is                       52
 fixed nKL is                                52
 max L of basis functions is                  4
 order of int derivative is                   0
 number of shells is                         29
 number of basis is                         139
 number of cartesian basis is               139
 number of contracted shell pairs           435
 number of primitive shell pairs           1203
 maxK2 (contraction) of shell pair           81
 max number of K2 of shell pair               1
 max number of CS2 of shell pair             49
 max number of PS2 of shell pair            243
 mem total for path MDJ                  609409
 -------------------------------------------------------
 Smallest overlap matrix eigenvalue = 2.05E-04
 Guess MOs from SCF MO coefficient file
 Reading MOs from coefficient file
 Reading MOs from coefficient file
 A restricted hybrid HF-DFT SCF calculation will be
 performed using Geometric Direct Minimization
 Exchange:     0.2000 Hartree-Fock + 0.0800 Slater + 0.7200 B88
 Correlation:  0.1900 VWN1RPA + 0.8100 LYP
 Using Euler-Maclaurin-Lebedev (99,590) quadrature formula
 SCF converges when RMS gradient is below 1.0E-08
Using Q-Chem read-in guess as SCF_GUESS READ specified.

 using 8 threads for integral computing
 -------------------------------------------------------
 OpenMP Integral computing Module                
 Release: version 2.0, May 2017, Q-Chem Inc. Pleasanton 
 -------------------------------------------------------
TIMEINFO->: J/JK contribution 3.24 sec.
 -------------------------------------------------------
 OpenMP BLAS3 based DFT computing Module                
 Release: version 1.0, May 2013, Q-Chem Inc. Pittsburgh 
 -------------------------------------------------------
 ---------------------------------------
  Cycle       Energy        RMS Gradient
 ---------------------------------------
    1     -14.6726945911      1.58E-03 Normal BFGS step
TIMEINFO->: J/JK contribution 3.20 sec.
    2     -14.6726993916      2.43E-04 Normal BFGS step
TIMEINFO->: J/JK contribution 3.12 sec.
    3     -14.6726994975      1.63E-05 Normal BFGS step
TIMEINFO->: J/JK contribution 2.95 sec.
    4     -14.6726994982      1.16E-06 Normal BFGS step
TIMEINFO->: J/JK contribution 2.59 sec.
    5     -14.6726994982      8.74E-08 Normal BFGS step
TIMEINFO->: J/JK contribution 2.32 sec.
    6     -14.6726994982      3.32E-09 Convergence criterion met
 ---------------------------------------
 B3LYP orbitals are now ready for the XYGJ-OS calculation.
 XYGJ-OS energy = Exch (0.7731 HF  + 0.2269 Slater) + 
                  Corr (0.2754 LYP + 0.2309 VWN1RPA + 0.4364 OS-MP2)
 SCF time:  CPU 24.06 s  wall 3.03 s
 SCF   energy in the final basis set = -14.58603636
 Total energy in the final basis set = -14.58603636
 Entering Scaled Opposite Spin MP2
 NBasAux in rimp2.F =          132

 OS-MP2 job begins now...

 SOS scaling factor =  0.4
 Form (P|Q)**(-1/2)...
 
 Form (ia|P)...
 Form BiaQ = (ia|P)*(P|Q)**(-1/2)...
 Laplace quadrature loop begins
 Laplace point 1: correlation energy     =        -0.0246078799
 Laplace point 2: correlation energy     =        -0.0215183519
 Laplace point 3: correlation energy     =        -0.0119519104
 Laplace point 4: correlation energy     =        -0.0143263888
 Laplace point 5: correlation energy     =        -0.0166427403
 Laplace point 6: correlation energy     =        -0.0104839773
 Laplace point 7: correlation energy     =        -0.0017437669
 
 singles contribution not yet available for XYGJ-OS 
 Total OS-MP2 correlation energy         =        -0.1012750154

 Total XYGJ-OS energy                    =       -14.6302327770
 
 ------------------------------------------------------------------------------
                     SOSMP2        : Timing summary (seconds)
 ------------------------------------------------------------------------------
     job step          cpu (% of tot)      sys (% of tot)     wall (% of tot)
 ------------------------------------------------------------------------------
  Form inv (P|Q)    0.1667E+00 ( 5.7)   0.3000E-05 ( 9.4)   0.2111E-01 ( 5.7)
  Form (ia|P)       0.2609E+01 (88.8)   0.2700E-04 (84.4)   0.3277E+00 (88.8)
  Form  BiaQ        0.1264E-01 ( 0.4)   0.0000E+00 ( 0.0)   0.1622E-02 ( 0.4)
  LP orbitals       0.2192E-01 ( 0.7)   0.0000E+00 ( 0.0)   0.2745E-02 ( 0.7)
  Form  X(PQ)       0.4569E-01 ( 1.6)   0.1000E-05 ( 3.1)   0.5729E-02 ( 1.6)
  Increment EMP2    0.3125E-01 ( 1.1)   0.0000E+00 ( 0.0)   0.3914E-02 ( 1.1)
 ------------------------------------------------------------------------------
   Grand Totals     0.2937E+01          0.3200E-04          0.3691E+00
 ------------------------------------------------------------------------------
 
 --------------------------------------------------------------
 
                    Orbital Energies (a.u.)
 --------------------------------------------------------------
 
 Alpha MOs
 -- Occupied --
 -4.086  -0.232
 -- Virtual --
 -0.052  -0.052  -0.051   0.009   0.014   0.014   0.022   0.108
  0.108   0.109   0.109   0.109   0.118   0.118   0.120   0.131
  0.303   0.303   0.304   0.304   0.304   0.304   0.304   0.459
  0.459   0.459   0.459   0.459   0.527   0.527   0.528   0.621
  0.811   0.811   0.812   0.812   0.812   0.812   0.812   0.812
  0.812   0.994   0.994   0.994   0.994   0.994   0.994   0.994
  1.438   1.438   1.438   1.438   1.438   1.897   1.897   1.897
  2.330   2.330   2.330   2.330   2.330   2.330   2.330   2.330
  2.330   2.484   2.484   2.484   2.484   2.484   2.484   2.484
  3.158   4.028   4.028   4.028   4.028   4.028   7.491   7.491
  7.491  13.355  18.667  18.667  18.667  18.667  18.667  27.794
 27.794  27.794  47.773  50.074  50.074  50.074  50.074  50.074
 50.074  50.074  95.889  95.889  95.889 102.221 102.221 102.221
102.221 102.221 205.415
 --------------------------------------------------------------
 
          Ground-State Mulliken Net Atomic Charges

     Atom                 Charge (a.u.)
  ----------------------------------------
      1 Be                   -0.000000
  ----------------------------------------
  Sum of atomic charges =    -0.000000

 -----------------------------------------------------------------
                    Cartesian Multipole Moments
 -----------------------------------------------------------------
    Charge (ESU x 10^10)
                -0.0000
    Dipole Moment (Debye)
         X      -0.0000      Y      -0.0000      Z      -0.0000
       Tot       0.0000
    Quadrupole Moments (Debye-Ang)
        XX      -7.5328     XY       0.0000     YY      -7.5328
        XZ      -0.0000     YZ      -0.0000     ZZ      -7.5025
    Octopole Moments (Debye-Ang^2)
       XXX       0.0000    XXY      -0.0000    XYY      -0.0000
       YYY      -0.0000    XXZ      -0.0000    XYZ      -0.0000
       YYZ      -0.0000    XZZ      -0.0000    YZZ      -0.0000
       ZZZ      -0.0000
    Hexadecapole Moments (Debye-Ang^3)
      XXXX     -19.2960   XXXY      -0.0000   XXYY      -6.4320
      XYYY       0.0000   YYYY     -19.2960   XXXZ       0.0000
      XXYZ       0.0000   XYYZ      -0.0000   YYYZ      -0.0000
      XXZZ      -6.3982   XYZZ       0.0000   YYZZ      -6.3982
      XZZZ      -0.0000   YZZZ       0.0000   ZZZZ     -19.0938
 -----------------------------------------------------------------

 STANDARD THERMODYNAMIC QUANTITIES AT   298.15 K  AND     1.00 ATM

   Translational Enthalpy:        0.889 kcal/mol
   Rotational Enthalpy:           0.000 kcal/mol
   Vibrational Enthalpy:          0.000 kcal/mol
   gas constant (RT):             0.592 kcal/mol
   Translational Entropy:        32.544  cal/mol.K
   Rotational Entropy:            0.000  cal/mol.K
   Vibrational Entropy:           0.000  cal/mol.K

   Total Enthalpy:                1.481 kcal/mol
   Total Entropy:                32.544  cal/mol.K

 -----------------------------------------------------------------

Archival summary:
1\1\n0031.mhg0\SP\ProcedureUnspecified\BasisUnspecified\e1\yhljason\TueOct2723:49:552020TueOct2723:49:552020\0\\#,ProcedureUnspecified,BasisUnspecified,\\0,1\Be\\\@

 Total job time:  3.98s(wall), 31.33s(cpu) 
 Tue Oct 27 23:49:55 2020

        *************************************************************
        *                                                           *
        *  Thank you very much for using Q-Chem.  Have a nice day.  *
        *                                                           *
        *************************************************************


