Q-Chem Developer Version!
                  Welcome to Q-Chem
     A Quantum Leap Into The Future Of Chemistry


 Q-Chem 5.1, Q-Chem, Inc., Pleasanton, CA (2018)

 Yihan Shao,  Zhengting Gan,  E. Epifanovsky,  A. T. B. Gilbert,  M. Wormit,  
 J. Kussmann,  A. W. Lange,  A. Behn,  Jia Deng,  Xintian Feng,  D. Ghosh,  
 M. Goldey,  P. R. Horn,  L. D. Jacobson,  I. Kaliman,  T. Kus,  A. Landau,  
 Jie Liu,  E. I. Proynov,  R. M. Richard,  R. P. Steele,  E. J. Sundstrom,  
 H. L. Woodcock III,  P. M. Zimmerman,  D. Zuev,  B. Albrecht,  E. Alguire,  
 S. A. Baeppler,  D. Barton,  Z. Benda,  Y. A. Bernard,  E. J. Berquist,  
 K. B. Bravaya,  H. Burton,  D. Casanova,  Chun-Min Chang,  Yunqing Chen,  
 A. Chien,  K. D. Closser,  M. P. Coons,  S. Coriani,  S. Dasgupta,  
 A. L. Dempwolff,  M. Diedenhofen,  Hainam Do,  R. G. Edgar,  Po-Tung Fang,  
 S. Faraji,  S. Fatehi,  Qingguo Feng,  K. D. Fenk,  J. Fosso-Tande,  
 Qinghui Ge,  A. Ghysels,  G. Gidofalvi,  J. Gomes,  J. Gonthier,  A. Gunina,  
 D. Hait,  M. W. D. Hanson-Heine,  P. H. P. Harbach,  A. W. Hauser,  
 J. E. Herr,  E. G. Hohenstein,  Z. C. Holden,  Kerwin Hui,  B. C. Huynh,  
 T.-C. Jagau,  Hyunjun Ji,  B. Kaduk,  K. Khistyaev,  Jaehoon Kim,  
 P. Klunzinger,  K. Koh,  D. Kosenkov,  L. Koulias,  T. Kowalczyk,  
 C. M. Krauter,  A. Kunitsa,  Ka Un Lao,  A. Laurent,  K. V. Lawler,  
 Joonho Lee,  D. Lefrancois,  S. Lehtola,  D. S. Levine,  Yi-Pei Li,  
 You-Sheng Lin,  Fenglai Liu,  E. Livshits,  A. Luenser,  P. Manohar,  
 E. Mansoor,  S. F. Manzer,  Shan-Ping Mao,  Yuezhi Mao,  N. Mardirossian,  
 A. V. Marenich,  T. Markovich,  L. A. Martinez-Martinez,  S. A. Maurer,  
 N. J. Mayhall,  S. C. McKenzie,  J.-M. Mewes,  A. F. Morrison,  
 J. W. Mullinax,  K. Nanda,  T. S. Nguyen-Beck,  R. Olivares-Amaya,  
 J. A. Parkhill,  T. M. Perrine,  F. Plasser,  P. Pokhilko,  S. Prager,  
 A. Prociuk,  E. Ramos,  D. R. Rehn,  F. Rob,  M. Schneider,  N. Sergueev,  
 S. M. Sharada,  S. Sharma,  D. W. Small,  T. Stauch,  T. Stein,  
 Yu-Chuan Su,  A. J. W. Thom,  A. Tkatchenko,  T. Tsuchimochi,  N. M. Tubman,  
 L. Vogt,  M. L. Vidal,  O. Vydrov,  M. A. Watson,  J. Wenzel,  
 M. de Wergifosse,  T. A. Wesolowski,  A. White,  J. Witte,  A. Yamada,  
 Jun Yang,  K. Yao,  S. Yeganeh,  S. R. Yost,  Zhi-Qiang You,  A. Zech,  
 Igor Ying Zhang,  Xing Zhang,  Yan Zhao,  Ying Zhu,  B. R. Brooks,  
 G. K. L. Chan,  C. J. Cramer,  M. S. Gordon,  W. J. Hehre,  A. Klamt,  
 M. W. Schmidt,  C. D. Sherrill,  D. G. Truhlar,  A. Aspuru-Guzik,  R. Baer,  
 A. T. Bell,  N. A. Besley,  Jeng-Da Chai,  A. E. DePrince, III,  
 R. A. DiStasio Jr.,  A. Dreuw,  B. D. Dunietz,  T. R. Furlani,  
 Chao-Ping Hsu,  Yousung Jung,  Jing Kong,  D. S. Lambrecht,  WanZhen Liang,  
 C. Ochsenfeld,  V. A. Rassolov,  L. V. Slipchenko,  J. E. Subotnik,  
 T. Van Voorhis,  J. M. Herbert,  A. I. Krylov,  P. M. W. Gill,  M. Head-Gordon

 Contributors to earlier versions of Q-Chem not listed above: 
 R. D. Adamson,  B. Austin,  J. Baker,  G. J. O. Beran,  K. Brandhorst,  
 S. T. Brown,  E. F. C. Byrd,  A. K. Chakraborty,  C.-L. Cheng,  
 Siu Hung Chien,  D. M. Chipman,  D. L. Crittenden,  H. Dachsel,  
 R. J. Doerksen,  A. D. Dutoi,  L. Fusti-Molnar,  W. A. Goddard III,  
 A. Golubeva-Zadorozhnaya,  S. R. Gwaltney,  G. Hawkins,  A. Heyden,  
 S. Hirata,  G. Kedziora,  F. J. Keil,  C. Kelley,  Jihan Kim,  R. A. King,  
 R. Z. Khaliullin,  P. P. Korambath,  W. Kurlancheek,  A. M. Lee,  M. S. Lee,  
 S. V. Levchenko,  Ching Yeh Lin,  D. Liotard,  R. C. Lochan,  I. Lotan,  
 P. E. Maslen,  N. Nair,  D. P. O'Neill,  D. Neuhauser,  E. Neuscamman,  
 C. M. Oana,  R. Olson,  B. Peters,  R. Peverati,  P. A. Pieniazek,  
 Y. M. Rhee,  J. Ritchie,  M. A. Rohrdanz,  E. Rosta,  N. J. Russ,  
 H. F. Schaefer III,  N. E. Schultz,  N. Shenvi,  A. C. Simmonett,  A. Sodt,  
 D. Stuck,  K. S. Thanthiriwatte,  V. Vanovschi,  Tao Wang,  A. Warshel,  
 C. F. Williams,  Q. Wu,  X. Xu,  W. Zhang

 Please cite Q-Chem as follows:
 Y. Shao et al., Mol. Phys. 113, 184-215 (2015)
 DOI: 10.1080/00268976.2014.952696

 Q-Chem 5.1.1 for Intel X86 EM64T Linux

 Parts of Q-Chem use Armadillo 8.300.2 (Tropical Shenanigans).
 http://arma.sourceforge.net/

 Q-Chem begins on Wed Oct 21 03:28:43 2020  

Host: n0070.mhg0
0

     Scratch files written to /local/scratch/users/yhljason/CH4_XYGJOS_aug-cc-pcVQZ.inp20201021032841//
Input Ideriv = 2
Curr. Ideriv = -1
Max.  Ideriv = 2

Checking the input file for inconsistencies... 	...done.

--------------------------------------------------------------
User input:
--------------------------------------------------------------
$molecule 
0 1
C1	0.0000	0.0000	0.0000
H2	0.6276	0.6276	0.6276
H3	0.6276	-0.6276	-0.6276
H4	-0.6276	0.6276	-0.6276
H5	-0.6276	-0.6276	0.6276
$end

$rem
jobtype sp
exchange XYGJOS
xc_grid 000099000590
basis aug-cc-pcVQZ
aux_basis rimp2-aug-cc-pVQZ
max_scf_cycles 200
thresh 14
scf_convergence 8
scf_algorithm gdm
symmetry false
sym_ignore true
unrestricted false
gen_scfman false
internal_stability_iter 15
internal_stability_davidson_iter 200
mem_total 128000
cc_memory 96000
cc_backend xm
mem_static 1500
n_frozen_core 0
$end



--------------------------------------------------------------
 ----------------------------------------------------------------
             Standard Nuclear Orientation (Angstroms)
    I     Atom           X                Y                Z
 ----------------------------------------------------------------
    1      C       0.0000000000     0.0000000000     0.0000000000
    2      H       0.6276000000     0.6276000000     0.6276000000
    3      H       0.6276000000    -0.6276000000    -0.6276000000
    4      H      -0.6276000000     0.6276000000    -0.6276000000
    5      H      -0.6276000000    -0.6276000000     0.6276000000
 ----------------------------------------------------------------
 Nuclear Repulsion Energy =    13.4720345843 hartrees
 There are        5 alpha and        5 beta electrons
 Requested basis set is aug-cc-pCVQZ
 There are 85 shells and 293 basis functions

 Total QAlloc Memory Limit 128000 MB
 Mega-Array Size      1467 MB
 MEM_STATIC part      1500 MB

                       Distance Matrix (Angstroms)
             C (  1)   H (  2)   H (  3)   H (  4)
   H (  2)  1.087035
   H (  3)  1.087035  1.775121
   H (  4)  1.087035  1.775121  1.775121
   H (  5)  1.087035  1.775121  1.775121  1.775121
 
 Requested basis set is rimp2-aug-cc-pVQZ
 There are 116 shells and 488 basis functions
 A cutoff of  1.0D-14 yielded   3655 shell pairs
 There are     43647 function pairs (     65712 Cartesian)
 
 -------------------------------------------------------
 OpenMP Integral Computing Module                       
 Release: version 1.0, May 2013, Q-Chem Inc. Pittsburgh 
 -------------------------------------------------------
 Integral Job Info:
 Integral job number is                      11
 Integral operator is                         1
 short-range coefficients                     0
 long-range coefficients              100000000
 Omega coefficients                           0
 if combine SR and LR in K                    0
 Integral screening is                        0
 Integral computing path is                   2
 max size of driver memory is           3200000
 size of driver memory is               1704330
 size of scratch memory is             18511652
 max col of scratch BK array              50625
 max len of scratch array in speh3         2114
 max len of scratch index in speh4           50
 max int batch size is                      520
 min int batch size is                       52
 fixed nKL is                                52
 max L of basis functions is                  4
 order of int derivative is                   0
 number of shells is                         85
 number of basis is                         359
 number of cartesian basis is               359
 number of contracted shell pairs          3655
 number of primitive shell pairs           6135
 maxK2 (contraction) of shell pair           81
 max number of K2 of shell pair               1
 max number of CS2 of shell pair            533
 max number of PS2 of shell pair            533
 mem total for path MDJ                  736752
 -------------------------------------------------------
 Smallest overlap matrix eigenvalue = 1.90E-05

 Scale SEOQF with 1.000000e-01/1.000000e-01/1.000000e-01

 Standard Electronic Orientation quadrupole field applied
 Guess from superposition of atomic densities
 Warning:  Energy on first SCF cycle will be non-variational
 SAD guess density has 10.000000 electrons
 A restricted hybrid HF-DFT SCF calculation will be
 performed using Pulay DIIS + Geometric Direct Minimization
 Exchange:     0.2000 Hartree-Fock + 0.0800 Slater + 0.7200 B88
 Correlation:  0.1900 VWN1RPA + 0.8100 LYP
 Using Euler-Maclaurin-Lebedev (99,590) quadrature formula
 SCF converges when RMS gradient is below 1.0E-08
 using 8 threads for integral computing
 -------------------------------------------------------
 OpenMP Integral computing Module                
 Release: version 2.0, May 2017, Q-Chem Inc. Pleasanton 
 -------------------------------------------------------
TIMEINFO->: J/JK contribution 26.75 sec.
 -------------------------------------------------------
 OpenMP BLAS3 based DFT computing Module                
 Release: version 1.0, May 2013, Q-Chem Inc. Pittsburgh 
 -------------------------------------------------------
 ---------------------------------------
  Cycle       Energy        RMS Gradient
 ---------------------------------------
    1     -40.4478543251      1.23E-02 Done DIIS. Switching to GDM
TIMEINFO->: J/JK contribution 153.29 sec.
    2     -40.4738068607      1.05E-01 Descent step
TIMEINFO->: J/JK contribution 151.84 sec.
    3     -40.4846535724      1.08E-01 Normal BFGS step
TIMEINFO->: J/JK contribution 149.89 sec.
    4     -40.5418575777      3.69E-03 Normal BFGS step
TIMEINFO->: J/JK contribution 149.12 sec.
    5     -40.5420805409      4.41E-04 Normal BFGS step
TIMEINFO->: J/JK contribution 152.50 sec.
    6     -40.5420832890      1.50E-05 Normal BFGS step
TIMEINFO->: J/JK contribution 151.04 sec.
    7     -40.5420832926      8.92E-07 Normal BFGS step
TIMEINFO->: J/JK contribution 153.11 sec.
    8     -40.5420832926      5.81E-08 Normal BFGS step
TIMEINFO->: J/JK contribution 144.60 sec.
    9     -40.5420832926      1.10E-08 Normal BFGS step
TIMEINFO->: J/JK contribution 137.50 sec.
   10     -40.5420832926      4.41E-09 Convergence criterion met
 ---------------------------------------
 B3LYP orbitals are now ready for the XYGJ-OS calculation.
 XYGJ-OS energy = Exch (0.7731 HF  + 0.2269 Slater) + 
                  Corr (0.2754 LYP + 0.2309 VWN1RPA + 0.4364 OS-MP2)
 SCF time:  CPU 1721.59 s  wall 220.33 s
 SCF   energy in the final basis set = -40.31515253
 Total energy in the final basis set = -40.31515253
 Entering Scaled Opposite Spin MP2
 NBasAux in rimp2.F =          488

 OS-MP2 job begins now...

 SOS scaling factor =  0.4
 Form (P|Q)**(-1/2)...
 
 Form (ia|P)...
 Form BiaQ = (ia|P)*(P|Q)**(-1/2)...
 Laplace quadrature loop begins
 Laplace point 1: correlation energy     =        -0.0561434653
 Laplace point 2: correlation energy     =        -0.0659094307
 Laplace point 3: correlation energy     =        -0.0828624875
 Laplace point 4: correlation energy     =        -0.0622320231
 Laplace point 5: correlation energy     =        -0.0166236044
 Laplace point 6: correlation energy     =        -0.0007131413
 Laplace point 7: correlation energy     =        -0.0000011344
 
 singles contribution not yet available for XYGJ-OS 
 Total OS-MP2 correlation energy         =        -0.2844852867

 Total XYGJ-OS energy                    =       -40.4393019108
 
 ------------------------------------------------------------------------------
                     SOSMP2        : Timing summary (seconds)
 ------------------------------------------------------------------------------
     job step          cpu (% of tot)      sys (% of tot)     wall (% of tot)
 ------------------------------------------------------------------------------
  Form inv (P|Q)    0.1169E+01 ( 3.6)   0.6000E-05 ( 4.3)   0.2081E+00 ( 4.5)
  Form (ia|P)       0.2847E+02 (87.3)   0.1150E-03 (83.3)   0.3577E+01 (76.8)
  Form  BiaQ        0.8676E+00 ( 2.7)   0.7000E-05 ( 5.1)   0.1089E+00 ( 2.3)
  LP orbitals       0.2462E+00 ( 0.8)   0.2000E-05 ( 1.4)   0.8455E-01 ( 1.8)
  Form  X(PQ)       0.1366E+01 ( 4.2)   0.7000E-05 ( 5.1)   0.4448E+00 ( 9.5)
  Increment EMP2    0.3996E+00 ( 1.2)   0.0000E+00 ( 0.0)   0.1703E+00 ( 3.7)
 ------------------------------------------------------------------------------
   Grand Totals     0.3261E+02          0.1380E-03          0.4657E+01
 ------------------------------------------------------------------------------
 
 --------------------------------------------------------------
 
                    Orbital Energies (a.u.)
 --------------------------------------------------------------
 
 Alpha MOs
 -- Occupied --
-10.154  -0.697  -0.396  -0.396  -0.396
 -- Virtual --
 -0.009   0.024   0.024   0.024   0.073   0.073   0.073   0.074
  0.115   0.115   0.115   0.136   0.136   0.207   0.207   0.207
  0.214   0.231   0.231   0.231   0.243   0.243   0.243   0.261
  0.286   0.286   0.286   0.348   0.348   0.445   0.445   0.457
  0.457   0.457   0.484   0.580   0.580   0.580   0.590   0.590
  0.590   0.626   0.626   0.626   0.639   0.657   0.657   0.657
  0.702   0.702   0.702   0.774   0.800   0.800   0.800   0.810
  0.810   0.851   0.851   0.949   0.966   0.966   0.966   1.008
  1.008   1.008   1.094   1.094   1.094   1.215   1.215   1.215
  1.304   1.304   1.304   1.354   1.401   1.401   1.401   1.500
  1.500   1.642   1.642   1.642   1.704   1.704   1.704   1.712
  1.731   1.731   1.761   1.761   1.761   1.797   1.814   1.814
  1.842   1.842   1.842   1.911   1.911   1.911   1.932   1.932
  1.932   1.977   2.003   2.051   2.051   2.051   2.089   2.089
  2.089   2.202   2.202   2.202   2.451   2.451   2.451   2.472
  2.472   2.550   2.550   2.550   2.568   2.577   2.577   2.577
  2.783   2.783   2.783   2.784   2.784   2.916   2.916   2.916
  2.954   3.115   3.115   3.436   3.436   3.436   3.438   3.438
  3.438   3.582   3.644   3.644   3.644   3.736   3.736   3.736
  3.811   3.811   3.811   3.886   3.970   3.970   3.983   3.983
  3.983   4.059   4.059   4.417   4.417   4.417   4.641   4.641
  4.641   4.714   5.593   5.593   5.593   5.736   5.736   5.878
  5.878   5.878   6.152   6.412   6.439   6.439   6.439   6.451
  6.451   6.451   6.567   6.567   6.567   6.618   6.618   6.618
  6.837   6.837   6.837   6.940   6.940   6.940   6.967   7.173
  7.352   7.352   7.502   7.502   7.502   7.524   7.524   7.524
  7.671   7.671   8.049   8.049   8.049   8.144   8.210   8.210
  8.210   8.224   8.224   8.751   8.751   8.751   8.802   8.802
  8.802   8.896   8.896   8.896   9.001   9.001   9.001   9.124
  9.236   9.236   9.571   9.571   9.642   9.642   9.642   9.846
  9.846   9.846   9.902   9.902  10.124  10.124  10.124  10.428
 10.462  10.462  10.462  11.088  11.088  11.088  12.532  12.532
 12.532  12.687  14.376  20.704  20.704  20.704  26.477  26.477
 27.385  27.385  27.385  38.182  67.077  67.077  67.077  97.611
 97.611  97.611  97.619  97.619  97.619  97.667 114.058 114.058
114.512 114.512 114.512 123.280 224.296 224.296 224.296 507.990
 --------------------------------------------------------------
 
          Ground-State Mulliken Net Atomic Charges

     Atom                 Charge (a.u.)
  ----------------------------------------
      1 C                    -1.066732
      2 H                     0.266683
      3 H                     0.266683
      4 H                     0.266683
      5 H                     0.266683
  ----------------------------------------
  Sum of atomic charges =     0.000000

 -----------------------------------------------------------------
                    Cartesian Multipole Moments
 -----------------------------------------------------------------
    Charge (ESU x 10^10)
                 0.0000
    Dipole Moment (Debye)
         X       0.0000      Y       0.0000      Z      -0.0000
       Tot       0.0000
    Quadrupole Moments (Debye-Ang)
        XX      -8.4832     XY      -0.0000     YY      -8.4832
        XZ       0.0000     YZ       0.0000     ZZ      -8.4832
    Octopole Moments (Debye-Ang^2)
       XXX       0.0000    XXY       0.0000    XYY       0.0000
       YYY       0.0000    XXZ      -0.0000    XYZ       0.6814
       YYZ      -0.0000    XZZ       0.0000    YZZ       0.0000
       ZZZ      -0.0000
    Hexadecapole Moments (Debye-Ang^3)
      XXXX     -17.3044   XXXY       0.0000   XXYY      -5.2534
      XYYY      -0.0000   YYYY     -17.3044   XXXZ       0.0000
      XXYZ       0.0000   XYYZ       0.0000   YYYZ       0.0000
      XXZZ      -5.2534   XYZZ       0.0000   YYZZ      -5.2534
      XZZZ       0.0000   YZZZ       0.0000   ZZZZ     -17.3044
 -----------------------------------------------------------------
Archival summary:
1\1\n0070.mhg0\SP\ProcedureUnspecified\BasisUnspecified\14\yhljason\WedOct2103:32:292020WedOct2103:32:292020\0\\#,ProcedureUnspecified,BasisUnspecified,\\0,1\C\H,1,1.08704\H,1,1.08704,2,109.471\H,1,1.08704,2,109.471,3,-120,0\H,1,1.08704,2,109.471,3,120,0\\\@

 Total job time:  226.52s(wall), 1760.60s(cpu) 
 Wed Oct 21 03:32:29 2020

        *************************************************************
        *                                                           *
        *  Thank you very much for using Q-Chem.  Have a nice day.  *
        *                                                           *
        *************************************************************


 
User input: 2 of 7 
 
Q-Chem Developer Version!
                  Welcome to Q-Chem
     A Quantum Leap Into The Future Of Chemistry


 Q-Chem 5.1, Q-Chem, Inc., Pleasanton, CA (2018)

 Yihan Shao,  Zhengting Gan,  E. Epifanovsky,  A. T. B. Gilbert,  M. Wormit,  
 J. Kussmann,  A. W. Lange,  A. Behn,  Jia Deng,  Xintian Feng,  D. Ghosh,  
 M. Goldey,  P. R. Horn,  L. D. Jacobson,  I. Kaliman,  T. Kus,  A. Landau,  
 Jie Liu,  E. I. Proynov,  R. M. Richard,  R. P. Steele,  E. J. Sundstrom,  
 H. L. Woodcock III,  P. M. Zimmerman,  D. Zuev,  B. Albrecht,  E. Alguire,  
 S. A. Baeppler,  D. Barton,  Z. Benda,  Y. A. Bernard,  E. J. Berquist,  
 K. B. Bravaya,  H. Burton,  D. Casanova,  Chun-Min Chang,  Yunqing Chen,  
 A. Chien,  K. D. Closser,  M. P. Coons,  S. Coriani,  S. Dasgupta,  
 A. L. Dempwolff,  M. Diedenhofen,  Hainam Do,  R. G. Edgar,  Po-Tung Fang,  
 S. Faraji,  S. Fatehi,  Qingguo Feng,  K. D. Fenk,  J. Fosso-Tande,  
 Qinghui Ge,  A. Ghysels,  G. Gidofalvi,  J. Gomes,  J. Gonthier,  A. Gunina,  
 D. Hait,  M. W. D. Hanson-Heine,  P. H. P. Harbach,  A. W. Hauser,  
 J. E. Herr,  E. G. Hohenstein,  Z. C. Holden,  Kerwin Hui,  B. C. Huynh,  
 T.-C. Jagau,  Hyunjun Ji,  B. Kaduk,  K. Khistyaev,  Jaehoon Kim,  
 P. Klunzinger,  K. Koh,  D. Kosenkov,  L. Koulias,  T. Kowalczyk,  
 C. M. Krauter,  A. Kunitsa,  Ka Un Lao,  A. Laurent,  K. V. Lawler,  
 Joonho Lee,  D. Lefrancois,  S. Lehtola,  D. S. Levine,  Yi-Pei Li,  
 You-Sheng Lin,  Fenglai Liu,  E. Livshits,  A. Luenser,  P. Manohar,  
 E. Mansoor,  S. F. Manzer,  Shan-Ping Mao,  Yuezhi Mao,  N. Mardirossian,  
 A. V. Marenich,  T. Markovich,  L. A. Martinez-Martinez,  S. A. Maurer,  
 N. J. Mayhall,  S. C. McKenzie,  J.-M. Mewes,  A. F. Morrison,  
 J. W. Mullinax,  K. Nanda,  T. S. Nguyen-Beck,  R. Olivares-Amaya,  
 J. A. Parkhill,  T. M. Perrine,  F. Plasser,  P. Pokhilko,  S. Prager,  
 A. Prociuk,  E. Ramos,  D. R. Rehn,  F. Rob,  M. Schneider,  N. Sergueev,  
 S. M. Sharada,  S. Sharma,  D. W. Small,  T. Stauch,  T. Stein,  
 Yu-Chuan Su,  A. J. W. Thom,  A. Tkatchenko,  T. Tsuchimochi,  N. M. Tubman,  
 L. Vogt,  M. L. Vidal,  O. Vydrov,  M. A. Watson,  J. Wenzel,  
 M. de Wergifosse,  T. A. Wesolowski,  A. White,  J. Witte,  A. Yamada,  
 Jun Yang,  K. Yao,  S. Yeganeh,  S. R. Yost,  Zhi-Qiang You,  A. Zech,  
 Igor Ying Zhang,  Xing Zhang,  Yan Zhao,  Ying Zhu,  B. R. Brooks,  
 G. K. L. Chan,  C. J. Cramer,  M. S. Gordon,  W. J. Hehre,  A. Klamt,  
 M. W. Schmidt,  C. D. Sherrill,  D. G. Truhlar,  A. Aspuru-Guzik,  R. Baer,  
 A. T. Bell,  N. A. Besley,  Jeng-Da Chai,  A. E. DePrince, III,  
 R. A. DiStasio Jr.,  A. Dreuw,  B. D. Dunietz,  T. R. Furlani,  
 Chao-Ping Hsu,  Yousung Jung,  Jing Kong,  D. S. Lambrecht,  WanZhen Liang,  
 C. Ochsenfeld,  V. A. Rassolov,  L. V. Slipchenko,  J. E. Subotnik,  
 T. Van Voorhis,  J. M. Herbert,  A. I. Krylov,  P. M. W. Gill,  M. Head-Gordon

 Contributors to earlier versions of Q-Chem not listed above: 
 R. D. Adamson,  B. Austin,  J. Baker,  G. J. O. Beran,  K. Brandhorst,  
 S. T. Brown,  E. F. C. Byrd,  A. K. Chakraborty,  C.-L. Cheng,  
 Siu Hung Chien,  D. M. Chipman,  D. L. Crittenden,  H. Dachsel,  
 R. J. Doerksen,  A. D. Dutoi,  L. Fusti-Molnar,  W. A. Goddard III,  
 A. Golubeva-Zadorozhnaya,  S. R. Gwaltney,  G. Hawkins,  A. Heyden,  
 S. Hirata,  G. Kedziora,  F. J. Keil,  C. Kelley,  Jihan Kim,  R. A. King,  
 R. Z. Khaliullin,  P. P. Korambath,  W. Kurlancheek,  A. M. Lee,  M. S. Lee,  
 S. V. Levchenko,  Ching Yeh Lin,  D. Liotard,  R. C. Lochan,  I. Lotan,  
 P. E. Maslen,  N. Nair,  D. P. O'Neill,  D. Neuhauser,  E. Neuscamman,  
 C. M. Oana,  R. Olson,  B. Peters,  R. Peverati,  P. A. Pieniazek,  
 Y. M. Rhee,  J. Ritchie,  M. A. Rohrdanz,  E. Rosta,  N. J. Russ,  
 H. F. Schaefer III,  N. E. Schultz,  N. Shenvi,  A. C. Simmonett,  A. Sodt,  
 D. Stuck,  K. S. Thanthiriwatte,  V. Vanovschi,  Tao Wang,  A. Warshel,  
 C. F. Williams,  Q. Wu,  X. Xu,  W. Zhang

 Please cite Q-Chem as follows:
 Y. Shao et al., Mol. Phys. 113, 184-215 (2015)
 DOI: 10.1080/00268976.2014.952696

 Q-Chem 5.1.1 for Intel X86 EM64T Linux

 Parts of Q-Chem use Armadillo 8.300.2 (Tropical Shenanigans).
 http://arma.sourceforge.net/

 Q-Chem begins on Wed Oct 21 03:32:30 2020  

Host: n0070.mhg0
0

     Scratch files written to /local/scratch/users/yhljason/CH4_XYGJOS_aug-cc-pcVQZ.inp20201021032841//
The previous job contains 0 fragments, simply inherited here
Input Ideriv = 2
Curr. Ideriv = -1
Max.  Ideriv = 2

Checking the input file for inconsistencies... 	...done.

--------------------------------------------------------------
User input:
--------------------------------------------------------------
$molecule
read
$end

$rem

jobtype sp
exchange XYGJOS
xc_grid 000099000590
basis aug-cc-pcVQZ
aux_basis rimp2-aug-cc-pVQZ
max_scf_cycles 200
thresh 14
scf_convergence 8
mem_total 128000
cc_memory 96000
cc_backend xm
mem_static 1500
symmetry false
sym_ignore true
scf_guess read
unrestricted false
scf_algorithm gdm
n_frozen_core 0
$end

$multipole_field
XX 0.0001
$end


--------------------------------------------------------------
 ----------------------------------------------------------------
             Standard Nuclear Orientation (Angstroms)
    I     Atom           X                Y                Z
 ----------------------------------------------------------------
    1      C       0.0000000000     0.0000000000     0.0000000000
    2      H       0.6276000000     0.6276000000     0.6276000000
    3      H       0.6276000000    -0.6276000000    -0.6276000000
    4      H      -0.6276000000     0.6276000000    -0.6276000000
    5      H      -0.6276000000    -0.6276000000     0.6276000000
 ----------------------------------------------------------------
 Nuclear Repulsion Energy =    13.4720345843 hartrees
 There are        5 alpha and        5 beta electrons
 Requested basis set is aug-cc-pCVQZ
 There are 85 shells and 293 basis functions

 Total QAlloc Memory Limit 128000 MB
 Mega-Array Size      1467 MB
 MEM_STATIC part      1500 MB

                       Distance Matrix (Angstroms)
             C (  1)   H (  2)   H (  3)   H (  4)
   H (  2)  1.087035
   H (  3)  1.087035  1.775121
   H (  4)  1.087035  1.775121  1.775121
   H (  5)  1.087035  1.775121  1.775121  1.775121
 
 Applying Cartesian multipole field
    Component          Value
    ---------          -----
     (2,0,0)        1.00000E-04
 Nucleus-field energy     =     0.0005626309 hartrees
 Requested basis set is rimp2-aug-cc-pVQZ
 There are 116 shells and 488 basis functions
 A cutoff of  1.0D-14 yielded   3655 shell pairs
 There are     43647 function pairs (     65712 Cartesian)
 
 -------------------------------------------------------
 OpenMP Integral Computing Module                       
 Release: version 1.0, May 2013, Q-Chem Inc. Pittsburgh 
 -------------------------------------------------------
 Integral Job Info:
 Integral job number is                      11
 Integral operator is                         1
 short-range coefficients                     0
 long-range coefficients              100000000
 Omega coefficients                           0
 if combine SR and LR in K                    0
 Integral screening is                        0
 Integral computing path is                   2
 max size of driver memory is           3200000
 size of driver memory is               1704330
 size of scratch memory is             18511652
 max col of scratch BK array              50625
 max len of scratch array in speh3         2114
 max len of scratch index in speh4           50
 max int batch size is                      520
 min int batch size is                       52
 fixed nKL is                                52
 max L of basis functions is                  4
 order of int derivative is                   0
 number of shells is                         85
 number of basis is                         359
 number of cartesian basis is               359
 number of contracted shell pairs          3655
 number of primitive shell pairs           6135
 maxK2 (contraction) of shell pair           81
 max number of K2 of shell pair               1
 max number of CS2 of shell pair            533
 max number of PS2 of shell pair            533
 mem total for path MDJ                  736752
 -------------------------------------------------------
 Smallest overlap matrix eigenvalue = 1.90E-05
 Guess MOs from SCF MO coefficient file
 Reading MOs from coefficient file
 Reading MOs from coefficient file
 A restricted hybrid HF-DFT SCF calculation will be
 performed using Geometric Direct Minimization
 Exchange:     0.2000 Hartree-Fock + 0.0800 Slater + 0.7200 B88
 Correlation:  0.1900 VWN1RPA + 0.8100 LYP
 Using Euler-Maclaurin-Lebedev (99,590) quadrature formula
 SCF converges when RMS gradient is below 1.0E-08
Using Q-Chem read-in guess as SCF_GUESS READ specified.

 using 8 threads for integral computing
 -------------------------------------------------------
 OpenMP Integral computing Module                
 Release: version 2.0, May 2017, Q-Chem Inc. Pleasanton 
 -------------------------------------------------------
TIMEINFO->: J/JK contribution 156.96 sec.
 -------------------------------------------------------
 OpenMP BLAS3 based DFT computing Module                
 Release: version 1.0, May 2013, Q-Chem Inc. Pittsburgh 
 -------------------------------------------------------
 ---------------------------------------
  Cycle       Energy        RMS Gradient
 ---------------------------------------
    1     -40.5427139986      2.70E-04 Normal BFGS step
TIMEINFO->: J/JK contribution 150.46 sec.
    2     -40.5427143225      1.30E-04 Normal BFGS step
TIMEINFO->: J/JK contribution 153.97 sec.
    3     -40.5427144199      4.64E-05 Normal BFGS step
TIMEINFO->: J/JK contribution 149.49 sec.
    4     -40.5427144376      4.14E-06 Normal BFGS step
TIMEINFO->: J/JK contribution 149.36 sec.
    5     -40.5427144378      4.73E-07 Normal BFGS step
TIMEINFO->: J/JK contribution 144.77 sec.
    6     -40.5427144378      1.55E-08 Normal BFGS step
TIMEINFO->: J/JK contribution 131.55 sec.
    7     -40.5427144378      4.10E-10 Convergence criterion met
 ---------------------------------------
 B3LYP orbitals are now ready for the XYGJ-OS calculation.
 XYGJ-OS energy = Exch (0.7731 HF  + 0.2269 Slater) + 
                  Corr (0.2754 LYP + 0.2309 VWN1RPA + 0.4364 OS-MP2)
 SCF time:  CPU 1296.99 s  wall 165.68 s
 SCF   energy in the final basis set = -40.31577555
 Total energy in the final basis set = -40.31577555
 Entering Scaled Opposite Spin MP2
 NBasAux in rimp2.F =          488

 OS-MP2 job begins now...

 SOS scaling factor =  0.4
 Form (P|Q)**(-1/2)...
 
 Form (ia|P)...
 Form BiaQ = (ia|P)*(P|Q)**(-1/2)...
 Laplace quadrature loop begins
 Laplace point 1: correlation energy     =        -0.0561407559
 Laplace point 2: correlation energy     =        -0.0659038683
 Laplace point 3: correlation energy     =        -0.0828596257
 Laplace point 4: correlation energy     =        -0.0622392618
 Laplace point 5: correlation energy     =        -0.0166326983
 Laplace point 6: correlation energy     =        -0.0007146796
 Laplace point 7: correlation energy     =        -0.0000011450
 
 singles contribution not yet available for XYGJ-OS 
 Total OS-MP2 correlation energy         =        -0.2844920346

 Total XYGJ-OS energy                    =       -40.4399278699
 
 ------------------------------------------------------------------------------
                     SOSMP2        : Timing summary (seconds)
 ------------------------------------------------------------------------------
     job step          cpu (% of tot)      sys (% of tot)     wall (% of tot)
 ------------------------------------------------------------------------------
  Form inv (P|Q)    0.1751E+01 ( 5.2)   0.1000E-05 ( 0.7)   0.2312E+00 ( 5.0)
  Form (ia|P)       0.2826E+02 (84.1)   0.1140E-03 (84.4)   0.3546E+01 (76.4)
  Form  BiaQ        0.7923E+00 ( 2.4)   0.5000E-05 ( 3.7)   0.9928E-01 ( 2.1)
  LP orbitals       0.3092E+00 ( 0.9)   0.2000E-05 ( 1.5)   0.8233E-01 ( 1.8)
  Form  X(PQ)       0.1761E+01 ( 5.2)   0.1000E-04 ( 7.4)   0.4424E+00 ( 9.5)
  Increment EMP2    0.6357E+00 ( 1.9)   0.3000E-05 ( 2.2)   0.1781E+00 ( 3.8)
 ------------------------------------------------------------------------------
   Grand Totals     0.3360E+02          0.1350E-03          0.4640E+01
 ------------------------------------------------------------------------------
 
 --------------------------------------------------------------
 
                    Orbital Energies (a.u.)
 --------------------------------------------------------------
 
 Alpha MOs
 -- Occupied --
-10.154  -0.698  -0.396  -0.396  -0.396
 -- Virtual --
 -0.011   0.019   0.022   0.022   0.070   0.071   0.071   0.071
  0.113   0.114   0.114   0.135   0.136   0.205   0.206   0.206
  0.213   0.230   0.230   0.230   0.241   0.242   0.242   0.259
  0.285   0.285   0.285   0.347   0.347   0.444   0.445   0.456
  0.456   0.456   0.483   0.579   0.579   0.579   0.589   0.589
  0.589   0.625   0.626   0.626   0.638   0.656   0.657   0.657
  0.701   0.701   0.702   0.774   0.799   0.799   0.799   0.809
  0.809   0.850   0.851   0.948   0.965   0.965   0.965   1.006
  1.007   1.007   1.093   1.093   1.093   1.215   1.215   1.215
  1.303   1.303   1.303   1.353   1.400   1.401   1.401   1.500
  1.500   1.641   1.641   1.641   1.703   1.703   1.703   1.711
  1.730   1.730   1.760   1.760   1.760   1.797   1.813   1.814
  1.841   1.841   1.841   1.911   1.911   1.911   1.931   1.931
  1.931   1.976   2.003   2.050   2.050   2.050   2.089   2.089
  2.089   2.202   2.202   2.202   2.450   2.450   2.450   2.472
  2.472   2.550   2.550   2.550   2.568   2.577   2.577   2.577
  2.783   2.783   2.783   2.784   2.784   2.915   2.915   2.915
  2.953   3.114   3.114   3.435   3.435   3.435   3.437   3.437
  3.437   3.582   3.643   3.643   3.643   3.736   3.736   3.736
  3.810   3.810   3.810   3.886   3.969   3.969   3.982   3.982
  3.982   4.059   4.059   4.416   4.416   4.416   4.640   4.640
  4.641   4.713   5.592   5.593   5.593   5.735   5.735   5.877
  5.877   5.877   6.151   6.412   6.439   6.439   6.439   6.451
  6.451   6.451   6.567   6.567   6.567   6.617   6.617   6.617
  6.837   6.837   6.837   6.940   6.940   6.940   6.967   7.173
  7.352   7.352   7.502   7.502   7.502   7.524   7.524   7.524
  7.670   7.670   8.048   8.049   8.049   8.144   8.210   8.210
  8.210   8.224   8.224   8.750   8.750   8.750   8.802   8.802
  8.802   8.896   8.896   8.896   9.001   9.001   9.001   9.123
  9.235   9.235   9.571   9.571   9.642   9.642   9.642   9.846
  9.846   9.846   9.902   9.902  10.124  10.124  10.124  10.427
 10.462  10.462  10.462  11.087  11.087  11.087  12.532  12.532
 12.532  12.687  14.376  20.704  20.704  20.704  26.477  26.477
 27.385  27.385  27.385  38.181  67.076  67.076  67.076  97.610
 97.610  97.610  97.619  97.619  97.619  97.667 114.057 114.057
114.512 114.512 114.512 123.279 224.296 224.296 224.296 507.990
 --------------------------------------------------------------
 
          Ground-State Mulliken Net Atomic Charges

     Atom                 Charge (a.u.)
  ----------------------------------------
      1 C                    -1.067402
      2 H                     0.266851
      3 H                     0.266851
      4 H                     0.266851
      5 H                     0.266851
  ----------------------------------------
  Sum of atomic charges =     0.000000

 -----------------------------------------------------------------
                    Cartesian Multipole Moments
 -----------------------------------------------------------------
    Charge (ESU x 10^10)
                 0.0000
    Dipole Moment (Debye)
         X       0.0000      Y       0.0000      Z       0.0000
       Tot       0.0000
    Quadrupole Moments (Debye-Ang)
        XX      -8.4950     XY       0.0000     YY      -8.4842
        XZ       0.0000     YZ       0.0000     ZZ      -8.4842
    Octopole Moments (Debye-Ang^2)
       XXX       0.0000    XXY       0.0000    XYY       0.0000
       YYY       0.0000    XXZ       0.0000    XYZ       0.6794
       YYZ       0.0000    XZZ       0.0000    YZZ       0.0000
       ZZZ       0.0000
    Hexadecapole Moments (Debye-Ang^3)
      XXXX     -17.3549   XXXY       0.0000   XXYY      -5.2640
      XYYY       0.0000   YYYY     -17.3088   XXXZ       0.0000
      XXYZ      -0.0000   XYYZ       0.0000   YYYZ       0.0000
      XXZZ      -5.2640   XYZZ       0.0000   YYZZ      -5.2548
      XZZZ       0.0000   YZZZ       0.0000   ZZZZ     -17.3088
 -----------------------------------------------------------------
Archival summary:
1\1\n0070.mhg0\SP\ProcedureUnspecified\BasisUnspecified\14\yhljason\WedOct2103:35:222020WedOct2103:35:222020\0\\#,ProcedureUnspecified,BasisUnspecified,\\0,1\C\H,1,1.08704\H,1,1.08704,2,109.471\H,1,1.08704,2,109.471,3,-120,0\H,1,1.08704,2,109.471,3,120,0\\\@

 Total job time:  172.04s(wall), 1340.04s(cpu) 
 Wed Oct 21 03:35:22 2020

        *************************************************************
        *                                                           *
        *  Thank you very much for using Q-Chem.  Have a nice day.  *
        *                                                           *
        *************************************************************


 
User input: 3 of 7 
 
Q-Chem Developer Version!
                  Welcome to Q-Chem
     A Quantum Leap Into The Future Of Chemistry


 Q-Chem 5.1, Q-Chem, Inc., Pleasanton, CA (2018)

 Yihan Shao,  Zhengting Gan,  E. Epifanovsky,  A. T. B. Gilbert,  M. Wormit,  
 J. Kussmann,  A. W. Lange,  A. Behn,  Jia Deng,  Xintian Feng,  D. Ghosh,  
 M. Goldey,  P. R. Horn,  L. D. Jacobson,  I. Kaliman,  T. Kus,  A. Landau,  
 Jie Liu,  E. I. Proynov,  R. M. Richard,  R. P. Steele,  E. J. Sundstrom,  
 H. L. Woodcock III,  P. M. Zimmerman,  D. Zuev,  B. Albrecht,  E. Alguire,  
 S. A. Baeppler,  D. Barton,  Z. Benda,  Y. A. Bernard,  E. J. Berquist,  
 K. B. Bravaya,  H. Burton,  D. Casanova,  Chun-Min Chang,  Yunqing Chen,  
 A. Chien,  K. D. Closser,  M. P. Coons,  S. Coriani,  S. Dasgupta,  
 A. L. Dempwolff,  M. Diedenhofen,  Hainam Do,  R. G. Edgar,  Po-Tung Fang,  
 S. Faraji,  S. Fatehi,  Qingguo Feng,  K. D. Fenk,  J. Fosso-Tande,  
 Qinghui Ge,  A. Ghysels,  G. Gidofalvi,  J. Gomes,  J. Gonthier,  A. Gunina,  
 D. Hait,  M. W. D. Hanson-Heine,  P. H. P. Harbach,  A. W. Hauser,  
 J. E. Herr,  E. G. Hohenstein,  Z. C. Holden,  Kerwin Hui,  B. C. Huynh,  
 T.-C. Jagau,  Hyunjun Ji,  B. Kaduk,  K. Khistyaev,  Jaehoon Kim,  
 P. Klunzinger,  K. Koh,  D. Kosenkov,  L. Koulias,  T. Kowalczyk,  
 C. M. Krauter,  A. Kunitsa,  Ka Un Lao,  A. Laurent,  K. V. Lawler,  
 Joonho Lee,  D. Lefrancois,  S. Lehtola,  D. S. Levine,  Yi-Pei Li,  
 You-Sheng Lin,  Fenglai Liu,  E. Livshits,  A. Luenser,  P. Manohar,  
 E. Mansoor,  S. F. Manzer,  Shan-Ping Mao,  Yuezhi Mao,  N. Mardirossian,  
 A. V. Marenich,  T. Markovich,  L. A. Martinez-Martinez,  S. A. Maurer,  
 N. J. Mayhall,  S. C. McKenzie,  J.-M. Mewes,  A. F. Morrison,  
 J. W. Mullinax,  K. Nanda,  T. S. Nguyen-Beck,  R. Olivares-Amaya,  
 J. A. Parkhill,  T. M. Perrine,  F. Plasser,  P. Pokhilko,  S. Prager,  
 A. Prociuk,  E. Ramos,  D. R. Rehn,  F. Rob,  M. Schneider,  N. Sergueev,  
 S. M. Sharada,  S. Sharma,  D. W. Small,  T. Stauch,  T. Stein,  
 Yu-Chuan Su,  A. J. W. Thom,  A. Tkatchenko,  T. Tsuchimochi,  N. M. Tubman,  
 L. Vogt,  M. L. Vidal,  O. Vydrov,  M. A. Watson,  J. Wenzel,  
 M. de Wergifosse,  T. A. Wesolowski,  A. White,  J. Witte,  A. Yamada,  
 Jun Yang,  K. Yao,  S. Yeganeh,  S. R. Yost,  Zhi-Qiang You,  A. Zech,  
 Igor Ying Zhang,  Xing Zhang,  Yan Zhao,  Ying Zhu,  B. R. Brooks,  
 G. K. L. Chan,  C. J. Cramer,  M. S. Gordon,  W. J. Hehre,  A. Klamt,  
 M. W. Schmidt,  C. D. Sherrill,  D. G. Truhlar,  A. Aspuru-Guzik,  R. Baer,  
 A. T. Bell,  N. A. Besley,  Jeng-Da Chai,  A. E. DePrince, III,  
 R. A. DiStasio Jr.,  A. Dreuw,  B. D. Dunietz,  T. R. Furlani,  
 Chao-Ping Hsu,  Yousung Jung,  Jing Kong,  D. S. Lambrecht,  WanZhen Liang,  
 C. Ochsenfeld,  V. A. Rassolov,  L. V. Slipchenko,  J. E. Subotnik,  
 T. Van Voorhis,  J. M. Herbert,  A. I. Krylov,  P. M. W. Gill,  M. Head-Gordon

 Contributors to earlier versions of Q-Chem not listed above: 
 R. D. Adamson,  B. Austin,  J. Baker,  G. J. O. Beran,  K. Brandhorst,  
 S. T. Brown,  E. F. C. Byrd,  A. K. Chakraborty,  C.-L. Cheng,  
 Siu Hung Chien,  D. M. Chipman,  D. L. Crittenden,  H. Dachsel,  
 R. J. Doerksen,  A. D. Dutoi,  L. Fusti-Molnar,  W. A. Goddard III,  
 A. Golubeva-Zadorozhnaya,  S. R. Gwaltney,  G. Hawkins,  A. Heyden,  
 S. Hirata,  G. Kedziora,  F. J. Keil,  C. Kelley,  Jihan Kim,  R. A. King,  
 R. Z. Khaliullin,  P. P. Korambath,  W. Kurlancheek,  A. M. Lee,  M. S. Lee,  
 S. V. Levchenko,  Ching Yeh Lin,  D. Liotard,  R. C. Lochan,  I. Lotan,  
 P. E. Maslen,  N. Nair,  D. P. O'Neill,  D. Neuhauser,  E. Neuscamman,  
 C. M. Oana,  R. Olson,  B. Peters,  R. Peverati,  P. A. Pieniazek,  
 Y. M. Rhee,  J. Ritchie,  M. A. Rohrdanz,  E. Rosta,  N. J. Russ,  
 H. F. Schaefer III,  N. E. Schultz,  N. Shenvi,  A. C. Simmonett,  A. Sodt,  
 D. Stuck,  K. S. Thanthiriwatte,  V. Vanovschi,  Tao Wang,  A. Warshel,  
 C. F. Williams,  Q. Wu,  X. Xu,  W. Zhang

 Please cite Q-Chem as follows:
 Y. Shao et al., Mol. Phys. 113, 184-215 (2015)
 DOI: 10.1080/00268976.2014.952696

 Q-Chem 5.1.1 for Intel X86 EM64T Linux

 Parts of Q-Chem use Armadillo 8.300.2 (Tropical Shenanigans).
 http://arma.sourceforge.net/

 Q-Chem begins on Wed Oct 21 03:35:22 2020  

Host: n0070.mhg0
0

     Scratch files written to /local/scratch/users/yhljason/CH4_XYGJOS_aug-cc-pcVQZ.inp20201021032841//
The previous job contains 0 fragments, simply inherited here
Input Ideriv = 2
Curr. Ideriv = -1
Max.  Ideriv = 2

Checking the input file for inconsistencies... 	...done.

--------------------------------------------------------------
User input:
--------------------------------------------------------------
$molecule
read
$end

$rem

jobtype sp
exchange XYGJOS
xc_grid 000099000590
basis aug-cc-pcVQZ
aux_basis rimp2-aug-cc-pVQZ
max_scf_cycles 200
thresh 14
scf_convergence 8
mem_total 128000
cc_memory 96000
cc_backend xm
mem_static 1500
symmetry false
sym_ignore true
scf_guess read
unrestricted false
scf_algorithm gdm
n_frozen_core 0
$end

$multipole_field
XX -0.0001
$end


--------------------------------------------------------------
 ----------------------------------------------------------------
             Standard Nuclear Orientation (Angstroms)
    I     Atom           X                Y                Z
 ----------------------------------------------------------------
    1      C       0.0000000000     0.0000000000     0.0000000000
    2      H       0.6276000000     0.6276000000     0.6276000000
    3      H       0.6276000000    -0.6276000000    -0.6276000000
    4      H      -0.6276000000     0.6276000000    -0.6276000000
    5      H      -0.6276000000    -0.6276000000     0.6276000000
 ----------------------------------------------------------------
 Nuclear Repulsion Energy =    13.4720345843 hartrees
 There are        5 alpha and        5 beta electrons
 Requested basis set is aug-cc-pCVQZ
 There are 85 shells and 293 basis functions

 Total QAlloc Memory Limit 128000 MB
 Mega-Array Size      1467 MB
 MEM_STATIC part      1500 MB

                       Distance Matrix (Angstroms)
             C (  1)   H (  2)   H (  3)   H (  4)
   H (  2)  1.087035
   H (  3)  1.087035  1.775121
   H (  4)  1.087035  1.775121  1.775121
   H (  5)  1.087035  1.775121  1.775121  1.775121
 
 Applying Cartesian multipole field
    Component          Value
    ---------          -----
     (2,0,0)       -1.00000E-04
 Nucleus-field energy     =    -0.0005626309 hartrees
 Requested basis set is rimp2-aug-cc-pVQZ
 There are 116 shells and 488 basis functions
 A cutoff of  1.0D-14 yielded   3655 shell pairs
 There are     43647 function pairs (     65712 Cartesian)
 
 -------------------------------------------------------
 OpenMP Integral Computing Module                       
 Release: version 1.0, May 2013, Q-Chem Inc. Pittsburgh 
 -------------------------------------------------------
 Integral Job Info:
 Integral job number is                      11
 Integral operator is                         1
 short-range coefficients                     0
 long-range coefficients              100000000
 Omega coefficients                           0
 if combine SR and LR in K                    0
 Integral screening is                        0
 Integral computing path is                   2
 max size of driver memory is           3200000
 size of driver memory is               1704330
 size of scratch memory is             18511652
 max col of scratch BK array              50625
 max len of scratch array in speh3         2114
 max len of scratch index in speh4           50
 max int batch size is                      520
 min int batch size is                       52
 fixed nKL is                                52
 max L of basis functions is                  4
 order of int derivative is                   0
 number of shells is                         85
 number of basis is                         359
 number of cartesian basis is               359
 number of contracted shell pairs          3655
 number of primitive shell pairs           6135
 maxK2 (contraction) of shell pair           81
 max number of K2 of shell pair               1
 max number of CS2 of shell pair            533
 max number of PS2 of shell pair            533
 mem total for path MDJ                  736752
 -------------------------------------------------------
 Smallest overlap matrix eigenvalue = 1.90E-05
 Guess MOs from SCF MO coefficient file
 Reading MOs from coefficient file
 Reading MOs from coefficient file
 A restricted hybrid HF-DFT SCF calculation will be
 performed using Geometric Direct Minimization
 Exchange:     0.2000 Hartree-Fock + 0.0800 Slater + 0.7200 B88
 Correlation:  0.1900 VWN1RPA + 0.8100 LYP
 Using Euler-Maclaurin-Lebedev (99,590) quadrature formula
 SCF converges when RMS gradient is below 1.0E-08
Using Q-Chem read-in guess as SCF_GUESS READ specified.

 using 8 threads for integral computing
 -------------------------------------------------------
 OpenMP Integral computing Module                
 Release: version 2.0, May 2017, Q-Chem Inc. Pleasanton 
 -------------------------------------------------------
TIMEINFO->: J/JK contribution 148.92 sec.
 -------------------------------------------------------
 OpenMP BLAS3 based DFT computing Module                
 Release: version 1.0, May 2013, Q-Chem Inc. Pittsburgh 
 -------------------------------------------------------
 ---------------------------------------
  Cycle       Energy        RMS Gradient
 ---------------------------------------
    1     -40.5414512672      5.62E-04 Normal BFGS step
TIMEINFO->: J/JK contribution 148.30 sec.
    2     -40.5414525644      2.53E-04 Normal BFGS step
TIMEINFO->: J/JK contribution 149.09 sec.
    3     -40.5414529519      9.28E-05 Normal BFGS step
TIMEINFO->: J/JK contribution 149.01 sec.
    4     -40.5414530231      8.15E-06 Normal BFGS step
TIMEINFO->: J/JK contribution 149.07 sec.
    5     -40.5414530239      8.92E-07 Normal BFGS step
TIMEINFO->: J/JK contribution 148.27 sec.
    6     -40.5414530239      3.05E-08 Normal BFGS step
TIMEINFO->: J/JK contribution 136.00 sec.
    7     -40.5414530239      8.40E-10 Convergence criterion met
 ---------------------------------------
 B3LYP orbitals are now ready for the XYGJ-OS calculation.
 XYGJ-OS energy = Exch (0.7731 HF  + 0.2269 Slater) + 
                  Corr (0.2754 LYP + 0.2309 VWN1RPA + 0.4364 OS-MP2)
 SCF time:  CPU 1290.82 s  wall 164.97 s
 SCF   energy in the final basis set = -40.31453030
 Total energy in the final basis set = -40.31453030
 Entering Scaled Opposite Spin MP2
 NBasAux in rimp2.F =          488

 OS-MP2 job begins now...

 SOS scaling factor =  0.4
 Form (P|Q)**(-1/2)...
 
 Form (ia|P)...
 Form BiaQ = (ia|P)*(P|Q)**(-1/2)...
 Laplace quadrature loop begins
 Laplace point 1: correlation energy     =        -0.0561461669
 Laplace point 2: correlation energy     =        -0.0659149761
 Laplace point 3: correlation energy     =        -0.0828653431
 Laplace point 4: correlation energy     =        -0.0622248238
 Laplace point 5: correlation energy     =        -0.0166145695
 Laplace point 6: correlation energy     =        -0.0007116194
 Laplace point 7: correlation energy     =        -0.0000011240
 
 singles contribution not yet available for XYGJ-OS 
 Total OS-MP2 correlation energy         =        -0.2844786228

 Total XYGJ-OS energy                    =       -40.4386767685
 
 ------------------------------------------------------------------------------
                     SOSMP2        : Timing summary (seconds)
 ------------------------------------------------------------------------------
     job step          cpu (% of tot)      sys (% of tot)     wall (% of tot)
 ------------------------------------------------------------------------------
  Form inv (P|Q)    0.1364E+01 ( 4.1)   0.7000E-05 ( 5.2)   0.2193E+00 ( 4.7)
  Form (ia|P)       0.2828E+02 (85.9)   0.1080E-03 (80.6)   0.3552E+01 (76.2)
  Form  BiaQ        0.8234E+00 ( 2.5)   0.5000E-05 ( 3.7)   0.1034E+00 ( 2.2)
  LP orbitals       0.2769E+00 ( 0.8)   0.4000E-05 ( 3.0)   0.8446E-01 ( 1.8)
  Form  X(PQ)       0.1665E+01 ( 5.1)   0.8000E-05 ( 6.0)   0.4653E+00 (10.0)
  Increment EMP2    0.4053E+00 ( 1.2)   0.1000E-05 ( 0.7)   0.1724E+00 ( 3.7)
 ------------------------------------------------------------------------------
   Grand Totals     0.3291E+02          0.1340E-03          0.4661E+01
 ------------------------------------------------------------------------------
 
 --------------------------------------------------------------
 
                    Orbital Energies (a.u.)
 --------------------------------------------------------------
 
 Alpha MOs
 -- Occupied --
-10.154  -0.697  -0.396  -0.396  -0.396
 -- Virtual --
 -0.007   0.025   0.025   0.028   0.075   0.075   0.075   0.077
  0.117   0.117   0.118   0.137   0.138   0.208   0.208   0.209
  0.216   0.232   0.232   0.232   0.244   0.244   0.245   0.263
  0.287   0.287   0.288   0.350   0.350   0.446   0.447   0.458
  0.458   0.459   0.485   0.581   0.581   0.581   0.591   0.591
  0.592   0.627   0.627   0.628   0.640   0.658   0.658   0.659
  0.703   0.703   0.703   0.775   0.801   0.801   0.801   0.810
  0.811   0.852   0.852   0.950   0.966   0.966   0.967   1.008
  1.008   1.009   1.094   1.094   1.095   1.216   1.216   1.216
  1.305   1.305   1.305   1.354   1.402   1.402   1.402   1.501
  1.501   1.642   1.642   1.643   1.704   1.705   1.705   1.712
  1.731   1.731   1.761   1.761   1.761   1.798   1.815   1.815
  1.842   1.842   1.842   1.912   1.912   1.912   1.932   1.932
  1.933   1.977   2.004   2.051   2.051   2.051   2.090   2.090
  2.090   2.203   2.203   2.203   2.451   2.451   2.451   2.472
  2.472   2.551   2.551   2.551   2.569   2.577   2.578   2.578
  2.783   2.783   2.784   2.784   2.784   2.916   2.916   2.916
  2.954   3.115   3.115   3.436   3.436   3.436   3.438   3.438
  3.438   3.582   3.644   3.644   3.644   3.737   3.737   3.737
  3.811   3.811   3.811   3.886   3.970   3.970   3.983   3.983
  3.983   4.060   4.060   4.417   4.417   4.417   4.641   4.641
  4.641   4.714   5.593   5.593   5.593   5.736   5.736   5.878
  5.878   5.878   6.152   6.413   6.439   6.439   6.439   6.452
  6.452   6.452   6.567   6.567   6.567   6.618   6.618   6.618
  6.838   6.838   6.838   6.941   6.941   6.941   6.967   7.174
  7.352   7.352   7.502   7.502   7.502   7.524   7.524   7.525
  7.671   7.671   8.049   8.049   8.049   8.144   8.210   8.210
  8.210   8.224   8.225   8.751   8.751   8.751   8.802   8.802
  8.802   8.896   8.896   8.896   9.002   9.002   9.002   9.124
  9.236   9.236   9.571   9.571   9.643   9.643   9.643   9.846
  9.846   9.847   9.903   9.903  10.125  10.125  10.125  10.428
 10.463  10.463  10.463  11.088  11.088  11.088  12.532  12.532
 12.532  12.687  14.376  20.705  20.705  20.705  26.477  26.477
 27.385  27.385  27.385  38.182  67.077  67.077  67.077  97.611
 97.611  97.611  97.620  97.620  97.620  97.667 114.058 114.058
114.512 114.512 114.512 123.280 224.297 224.297 224.297 507.990
 --------------------------------------------------------------
 
          Ground-State Mulliken Net Atomic Charges

     Atom                 Charge (a.u.)
  ----------------------------------------
      1 C                    -1.066072
      2 H                     0.266518
      3 H                     0.266518
      4 H                     0.266518
      5 H                     0.266518
  ----------------------------------------
  Sum of atomic charges =     0.000000

 -----------------------------------------------------------------
                    Cartesian Multipole Moments
 -----------------------------------------------------------------
    Charge (ESU x 10^10)
                 0.0000
    Dipole Moment (Debye)
         X       0.0000      Y      -0.0000      Z       0.0000
       Tot       0.0000
    Quadrupole Moments (Debye-Ang)
        XX      -8.4715     XY       0.0000     YY      -8.4822
        XZ      -0.0000     YZ       0.0000     ZZ      -8.4822
    Octopole Moments (Debye-Ang^2)
       XXX       0.0000    XXY      -0.0000    XYY       0.0000
       YYY      -0.0000    XXZ       0.0000    XYZ       0.6833
       YYZ       0.0000    XZZ       0.0000    YZZ      -0.0000
       ZZZ       0.0000
    Hexadecapole Moments (Debye-Ang^3)
      XXXX     -17.2546   XXXY       0.0000   XXYY      -5.2430
      XYYY       0.0000   YYYY     -17.3001   XXXZ      -0.0000
      XXYZ       0.0000   XYYZ      -0.0000   YYYZ       0.0000
      XXZZ      -5.2430   XYZZ      -0.0000   YYZZ      -5.2521
      XZZZ      -0.0000   YZZZ       0.0000   ZZZZ     -17.3001
 -----------------------------------------------------------------
Archival summary:
1\1\n0070.mhg0\SP\ProcedureUnspecified\BasisUnspecified\14\yhljason\WedOct2103:38:132020WedOct2103:38:132020\0\\#,ProcedureUnspecified,BasisUnspecified,\\0,1\C\H,1,1.08704\H,1,1.08704,2,109.471\H,1,1.08704,2,109.471,3,-120,0\H,1,1.08704,2,109.471,3,120,0\\\@

 Total job time:  171.32s(wall), 1332.60s(cpu) 
 Wed Oct 21 03:38:13 2020

        *************************************************************
        *                                                           *
        *  Thank you very much for using Q-Chem.  Have a nice day.  *
        *                                                           *
        *************************************************************


 
User input: 4 of 7 
 
Q-Chem Developer Version!
                  Welcome to Q-Chem
     A Quantum Leap Into The Future Of Chemistry


 Q-Chem 5.1, Q-Chem, Inc., Pleasanton, CA (2018)

 Yihan Shao,  Zhengting Gan,  E. Epifanovsky,  A. T. B. Gilbert,  M. Wormit,  
 J. Kussmann,  A. W. Lange,  A. Behn,  Jia Deng,  Xintian Feng,  D. Ghosh,  
 M. Goldey,  P. R. Horn,  L. D. Jacobson,  I. Kaliman,  T. Kus,  A. Landau,  
 Jie Liu,  E. I. Proynov,  R. M. Richard,  R. P. Steele,  E. J. Sundstrom,  
 H. L. Woodcock III,  P. M. Zimmerman,  D. Zuev,  B. Albrecht,  E. Alguire,  
 S. A. Baeppler,  D. Barton,  Z. Benda,  Y. A. Bernard,  E. J. Berquist,  
 K. B. Bravaya,  H. Burton,  D. Casanova,  Chun-Min Chang,  Yunqing Chen,  
 A. Chien,  K. D. Closser,  M. P. Coons,  S. Coriani,  S. Dasgupta,  
 A. L. Dempwolff,  M. Diedenhofen,  Hainam Do,  R. G. Edgar,  Po-Tung Fang,  
 S. Faraji,  S. Fatehi,  Qingguo Feng,  K. D. Fenk,  J. Fosso-Tande,  
 Qinghui Ge,  A. Ghysels,  G. Gidofalvi,  J. Gomes,  J. Gonthier,  A. Gunina,  
 D. Hait,  M. W. D. Hanson-Heine,  P. H. P. Harbach,  A. W. Hauser,  
 J. E. Herr,  E. G. Hohenstein,  Z. C. Holden,  Kerwin Hui,  B. C. Huynh,  
 T.-C. Jagau,  Hyunjun Ji,  B. Kaduk,  K. Khistyaev,  Jaehoon Kim,  
 P. Klunzinger,  K. Koh,  D. Kosenkov,  L. Koulias,  T. Kowalczyk,  
 C. M. Krauter,  A. Kunitsa,  Ka Un Lao,  A. Laurent,  K. V. Lawler,  
 Joonho Lee,  D. Lefrancois,  S. Lehtola,  D. S. Levine,  Yi-Pei Li,  
 You-Sheng Lin,  Fenglai Liu,  E. Livshits,  A. Luenser,  P. Manohar,  
 E. Mansoor,  S. F. Manzer,  Shan-Ping Mao,  Yuezhi Mao,  N. Mardirossian,  
 A. V. Marenich,  T. Markovich,  L. A. Martinez-Martinez,  S. A. Maurer,  
 N. J. Mayhall,  S. C. McKenzie,  J.-M. Mewes,  A. F. Morrison,  
 J. W. Mullinax,  K. Nanda,  T. S. Nguyen-Beck,  R. Olivares-Amaya,  
 J. A. Parkhill,  T. M. Perrine,  F. Plasser,  P. Pokhilko,  S. Prager,  
 A. Prociuk,  E. Ramos,  D. R. Rehn,  F. Rob,  M. Schneider,  N. Sergueev,  
 S. M. Sharada,  S. Sharma,  D. W. Small,  T. Stauch,  T. Stein,  
 Yu-Chuan Su,  A. J. W. Thom,  A. Tkatchenko,  T. Tsuchimochi,  N. M. Tubman,  
 L. Vogt,  M. L. Vidal,  O. Vydrov,  M. A. Watson,  J. Wenzel,  
 M. de Wergifosse,  T. A. Wesolowski,  A. White,  J. Witte,  A. Yamada,  
 Jun Yang,  K. Yao,  S. Yeganeh,  S. R. Yost,  Zhi-Qiang You,  A. Zech,  
 Igor Ying Zhang,  Xing Zhang,  Yan Zhao,  Ying Zhu,  B. R. Brooks,  
 G. K. L. Chan,  C. J. Cramer,  M. S. Gordon,  W. J. Hehre,  A. Klamt,  
 M. W. Schmidt,  C. D. Sherrill,  D. G. Truhlar,  A. Aspuru-Guzik,  R. Baer,  
 A. T. Bell,  N. A. Besley,  Jeng-Da Chai,  A. E. DePrince, III,  
 R. A. DiStasio Jr.,  A. Dreuw,  B. D. Dunietz,  T. R. Furlani,  
 Chao-Ping Hsu,  Yousung Jung,  Jing Kong,  D. S. Lambrecht,  WanZhen Liang,  
 C. Ochsenfeld,  V. A. Rassolov,  L. V. Slipchenko,  J. E. Subotnik,  
 T. Van Voorhis,  J. M. Herbert,  A. I. Krylov,  P. M. W. Gill,  M. Head-Gordon

 Contributors to earlier versions of Q-Chem not listed above: 
 R. D. Adamson,  B. Austin,  J. Baker,  G. J. O. Beran,  K. Brandhorst,  
 S. T. Brown,  E. F. C. Byrd,  A. K. Chakraborty,  C.-L. Cheng,  
 Siu Hung Chien,  D. M. Chipman,  D. L. Crittenden,  H. Dachsel,  
 R. J. Doerksen,  A. D. Dutoi,  L. Fusti-Molnar,  W. A. Goddard III,  
 A. Golubeva-Zadorozhnaya,  S. R. Gwaltney,  G. Hawkins,  A. Heyden,  
 S. Hirata,  G. Kedziora,  F. J. Keil,  C. Kelley,  Jihan Kim,  R. A. King,  
 R. Z. Khaliullin,  P. P. Korambath,  W. Kurlancheek,  A. M. Lee,  M. S. Lee,  
 S. V. Levchenko,  Ching Yeh Lin,  D. Liotard,  R. C. Lochan,  I. Lotan,  
 P. E. Maslen,  N. Nair,  D. P. O'Neill,  D. Neuhauser,  E. Neuscamman,  
 C. M. Oana,  R. Olson,  B. Peters,  R. Peverati,  P. A. Pieniazek,  
 Y. M. Rhee,  J. Ritchie,  M. A. Rohrdanz,  E. Rosta,  N. J. Russ,  
 H. F. Schaefer III,  N. E. Schultz,  N. Shenvi,  A. C. Simmonett,  A. Sodt,  
 D. Stuck,  K. S. Thanthiriwatte,  V. Vanovschi,  Tao Wang,  A. Warshel,  
 C. F. Williams,  Q. Wu,  X. Xu,  W. Zhang

 Please cite Q-Chem as follows:
 Y. Shao et al., Mol. Phys. 113, 184-215 (2015)
 DOI: 10.1080/00268976.2014.952696

 Q-Chem 5.1.1 for Intel X86 EM64T Linux

 Parts of Q-Chem use Armadillo 8.300.2 (Tropical Shenanigans).
 http://arma.sourceforge.net/

 Q-Chem begins on Wed Oct 21 03:38:13 2020  

Host: n0070.mhg0
0

     Scratch files written to /local/scratch/users/yhljason/CH4_XYGJOS_aug-cc-pcVQZ.inp20201021032841//
The previous job contains 0 fragments, simply inherited here
Input Ideriv = 2
Curr. Ideriv = -1
Max.  Ideriv = 2

Checking the input file for inconsistencies... 	...done.

--------------------------------------------------------------
User input:
--------------------------------------------------------------
$molecule
read
$end

$rem

jobtype sp
exchange XYGJOS
xc_grid 000099000590
basis aug-cc-pcVQZ
aux_basis rimp2-aug-cc-pVQZ
max_scf_cycles 200
thresh 14
scf_convergence 8
mem_total 128000
cc_memory 96000
cc_backend xm
mem_static 1500
symmetry false
sym_ignore true
scf_guess read
unrestricted false
scf_algorithm gdm
n_frozen_core 0
$end

$multipole_field
YY 0.0001
$end


--------------------------------------------------------------
 ----------------------------------------------------------------
             Standard Nuclear Orientation (Angstroms)
    I     Atom           X                Y                Z
 ----------------------------------------------------------------
    1      C       0.0000000000     0.0000000000     0.0000000000
    2      H       0.6276000000     0.6276000000     0.6276000000
    3      H       0.6276000000    -0.6276000000    -0.6276000000
    4      H      -0.6276000000     0.6276000000    -0.6276000000
    5      H      -0.6276000000    -0.6276000000     0.6276000000
 ----------------------------------------------------------------
 Nuclear Repulsion Energy =    13.4720345843 hartrees
 There are        5 alpha and        5 beta electrons
 Requested basis set is aug-cc-pCVQZ
 There are 85 shells and 293 basis functions

 Total QAlloc Memory Limit 128000 MB
 Mega-Array Size      1467 MB
 MEM_STATIC part      1500 MB

                       Distance Matrix (Angstroms)
             C (  1)   H (  2)   H (  3)   H (  4)
   H (  2)  1.087035
   H (  3)  1.087035  1.775121
   H (  4)  1.087035  1.775121  1.775121
   H (  5)  1.087035  1.775121  1.775121  1.775121
 
 Applying Cartesian multipole field
    Component          Value
    ---------          -----
     (0,2,0)        1.00000E-04
 Nucleus-field energy     =     0.0005626309 hartrees
 Requested basis set is rimp2-aug-cc-pVQZ
 There are 116 shells and 488 basis functions
 A cutoff of  1.0D-14 yielded   3655 shell pairs
 There are     43647 function pairs (     65712 Cartesian)
 
 -------------------------------------------------------
 OpenMP Integral Computing Module                       
 Release: version 1.0, May 2013, Q-Chem Inc. Pittsburgh 
 -------------------------------------------------------
 Integral Job Info:
 Integral job number is                      11
 Integral operator is                         1
 short-range coefficients                     0
 long-range coefficients              100000000
 Omega coefficients                           0
 if combine SR and LR in K                    0
 Integral screening is                        0
 Integral computing path is                   2
 max size of driver memory is           3200000
 size of driver memory is               1704330
 size of scratch memory is             18511652
 max col of scratch BK array              50625
 max len of scratch array in speh3         2114
 max len of scratch index in speh4           50
 max int batch size is                      520
 min int batch size is                       52
 fixed nKL is                                52
 max L of basis functions is                  4
 order of int derivative is                   0
 number of shells is                         85
 number of basis is                         359
 number of cartesian basis is               359
 number of contracted shell pairs          3655
 number of primitive shell pairs           6135
 maxK2 (contraction) of shell pair           81
 max number of K2 of shell pair               1
 max number of CS2 of shell pair            533
 max number of PS2 of shell pair            533
 mem total for path MDJ                  736752
 -------------------------------------------------------
 Smallest overlap matrix eigenvalue = 1.90E-05
 Guess MOs from SCF MO coefficient file
 Reading MOs from coefficient file
 Reading MOs from coefficient file
 A restricted hybrid HF-DFT SCF calculation will be
 performed using Geometric Direct Minimization
 Exchange:     0.2000 Hartree-Fock + 0.0800 Slater + 0.7200 B88
 Correlation:  0.1900 VWN1RPA + 0.8100 LYP
 Using Euler-Maclaurin-Lebedev (99,590) quadrature formula
 SCF converges when RMS gradient is below 1.0E-08
Using Q-Chem read-in guess as SCF_GUESS READ specified.

 using 8 threads for integral computing
 -------------------------------------------------------
 OpenMP Integral computing Module                
 Release: version 2.0, May 2017, Q-Chem Inc. Pleasanton 
 -------------------------------------------------------
TIMEINFO->: J/JK contribution 150.35 sec.
 -------------------------------------------------------
 OpenMP BLAS3 based DFT computing Module                
 Release: version 1.0, May 2013, Q-Chem Inc. Pittsburgh 
 -------------------------------------------------------
 ---------------------------------------
  Cycle       Energy        RMS Gradient
 ---------------------------------------
    1     -40.5427134862      3.82E-04 Normal BFGS step
TIMEINFO->: J/JK contribution 152.01 sec.
    2     -40.5427139859      2.82E-04 Normal BFGS step
TIMEINFO->: J/JK contribution 150.39 sec.
    3     -40.5427144209      3.78E-05 Normal BFGS step
TIMEINFO->: J/JK contribution 152.72 sec.
    4     -40.5427144372      6.35E-06 Normal BFGS step
TIMEINFO->: J/JK contribution 149.63 sec.
    5     -40.5427144378      4.15E-07 Normal BFGS step
TIMEINFO->: J/JK contribution 144.34 sec.
    6     -40.5427144378      1.78E-08 Normal BFGS step
TIMEINFO->: J/JK contribution 132.89 sec.
    7     -40.5427144378      7.44E-10 Convergence criterion met
 ---------------------------------------
 B3LYP orbitals are now ready for the XYGJ-OS calculation.
 XYGJ-OS energy = Exch (0.7731 HF  + 0.2269 Slater) + 
                  Corr (0.2754 LYP + 0.2309 VWN1RPA + 0.4364 OS-MP2)
 SCF time:  CPU 1295.32 s  wall 165.41 s
 SCF   energy in the final basis set = -40.31577555
 Total energy in the final basis set = -40.31577555
 Entering Scaled Opposite Spin MP2
 NBasAux in rimp2.F =          488

 OS-MP2 job begins now...

 SOS scaling factor =  0.4
 Form (P|Q)**(-1/2)...
 
 Form (ia|P)...
 Form BiaQ = (ia|P)*(P|Q)**(-1/2)...
 Laplace quadrature loop begins
 Laplace point 1: correlation energy     =        -0.0561407559
 Laplace point 2: correlation energy     =        -0.0659038683
 Laplace point 3: correlation energy     =        -0.0828596257
 Laplace point 4: correlation energy     =        -0.0622392618
 Laplace point 5: correlation energy     =        -0.0166326983
 Laplace point 6: correlation energy     =        -0.0007146796
 Laplace point 7: correlation energy     =        -0.0000011450
 
 singles contribution not yet available for XYGJ-OS 
 Total OS-MP2 correlation energy         =        -0.2844920346

 Total XYGJ-OS energy                    =       -40.4399278698
 
 ------------------------------------------------------------------------------
                     SOSMP2        : Timing summary (seconds)
 ------------------------------------------------------------------------------
     job step          cpu (% of tot)      sys (% of tot)     wall (% of tot)
 ------------------------------------------------------------------------------
  Form inv (P|Q)    0.1875E+01 ( 5.7)   0.9000E-05 ( 6.8)   0.2357E+00 ( 5.1)
  Form (ia|P)       0.2841E+02 (86.7)   0.1130E-03 (85.0)   0.3567E+01 (77.5)
  Form  BiaQ        0.7812E+00 ( 2.4)   0.3000E-05 ( 2.3)   0.9790E-01 ( 2.1)
  LP orbitals       0.1674E+00 ( 0.5)   0.3000E-05 ( 2.3)   0.7687E-01 ( 1.7)
  Form  X(PQ)       0.9932E+00 ( 3.0)   0.3000E-05 ( 2.3)   0.4036E+00 ( 8.8)
  Increment EMP2    0.2042E+00 ( 0.6)   0.0000E+00 ( 0.0)   0.1517E+00 ( 3.3)
 ------------------------------------------------------------------------------
   Grand Totals     0.3276E+02          0.1330E-03          0.4604E+01
 ------------------------------------------------------------------------------
 
 --------------------------------------------------------------
 
                    Orbital Energies (a.u.)
 --------------------------------------------------------------
 
 Alpha MOs
 -- Occupied --
-10.154  -0.698  -0.396  -0.396  -0.396
 -- Virtual --
 -0.011   0.019   0.022   0.022   0.070   0.071   0.071   0.071
  0.113   0.114   0.114   0.135   0.136   0.205   0.206   0.206
  0.213   0.230   0.230   0.230   0.241   0.242   0.242   0.259
  0.285   0.285   0.285   0.347   0.347   0.444   0.445   0.456
  0.456   0.456   0.483   0.579   0.579   0.579   0.589   0.589
  0.589   0.625   0.626   0.626   0.638   0.656   0.657   0.657
  0.701   0.701   0.702   0.774   0.799   0.799   0.799   0.809
  0.809   0.850   0.851   0.948   0.965   0.965   0.965   1.006
  1.007   1.007   1.093   1.093   1.093   1.215   1.215   1.215
  1.303   1.303   1.303   1.353   1.400   1.401   1.401   1.500
  1.500   1.641   1.641   1.641   1.703   1.703   1.703   1.711
  1.730   1.730   1.760   1.760   1.760   1.797   1.813   1.814
  1.841   1.841   1.841   1.911   1.911   1.911   1.931   1.931
  1.931   1.976   2.003   2.050   2.050   2.050   2.089   2.089
  2.089   2.202   2.202   2.202   2.450   2.450   2.450   2.472
  2.472   2.550   2.550   2.550   2.568   2.577   2.577   2.577
  2.783   2.783   2.783   2.784   2.784   2.915   2.915   2.915
  2.953   3.114   3.114   3.435   3.435   3.435   3.437   3.437
  3.437   3.582   3.643   3.643   3.643   3.736   3.736   3.736
  3.810   3.810   3.810   3.886   3.969   3.969   3.982   3.982
  3.982   4.059   4.059   4.416   4.416   4.416   4.640   4.640
  4.641   4.713   5.592   5.593   5.593   5.735   5.735   5.877
  5.877   5.877   6.151   6.412   6.439   6.439   6.439   6.451
  6.451   6.451   6.567   6.567   6.567   6.617   6.617   6.617
  6.837   6.837   6.837   6.940   6.940   6.940   6.967   7.173
  7.352   7.352   7.502   7.502   7.502   7.524   7.524   7.524
  7.670   7.670   8.048   8.049   8.049   8.144   8.210   8.210
  8.210   8.224   8.224   8.750   8.750   8.750   8.802   8.802
  8.802   8.896   8.896   8.896   9.001   9.001   9.001   9.123
  9.235   9.235   9.571   9.571   9.642   9.642   9.642   9.846
  9.846   9.846   9.902   9.902  10.124  10.124  10.124  10.427
 10.462  10.462  10.462  11.087  11.087  11.087  12.532  12.532
 12.532  12.687  14.376  20.704  20.704  20.704  26.477  26.477
 27.385  27.385  27.385  38.181  67.076  67.076  67.076  97.610
 97.610  97.610  97.619  97.619  97.619  97.667 114.057 114.057
114.512 114.512 114.512 123.279 224.296 224.296 224.296 507.990
 --------------------------------------------------------------
 
          Ground-State Mulliken Net Atomic Charges

     Atom                 Charge (a.u.)
  ----------------------------------------
      1 C                    -1.067402
      2 H                     0.266851
      3 H                     0.266851
      4 H                     0.266851
      5 H                     0.266851
  ----------------------------------------
  Sum of atomic charges =     0.000000

 -----------------------------------------------------------------
                    Cartesian Multipole Moments
 -----------------------------------------------------------------
    Charge (ESU x 10^10)
                 0.0000
    Dipole Moment (Debye)
         X       0.0000      Y      -0.0000      Z       0.0000
       Tot       0.0000
    Quadrupole Moments (Debye-Ang)
        XX      -8.4842     XY       0.0000     YY      -8.4950
        XZ       0.0000     YZ       0.0000     ZZ      -8.4842
    Octopole Moments (Debye-Ang^2)
       XXX       0.0000    XXY       0.0000    XYY       0.0000
       YYY      -0.0000    XXZ       0.0000    XYZ       0.6794
       YYZ      -0.0000    XZZ       0.0000    YZZ       0.0000
       ZZZ       0.0000
    Hexadecapole Moments (Debye-Ang^3)
      XXXX     -17.3088   XXXY       0.0000   XXYY      -5.2640
      XYYY       0.0000   YYYY     -17.3549   XXXZ       0.0000
      XXYZ       0.0000   XYYZ       0.0000   YYYZ       0.0000
      XXZZ      -5.2548   XYZZ       0.0000   YYZZ      -5.2640
      XZZZ       0.0000   YZZZ       0.0000   ZZZZ     -17.3088
 -----------------------------------------------------------------
Archival summary:
1\1\n0070.mhg0\SP\ProcedureUnspecified\BasisUnspecified\14\yhljason\WedOct2103:41:052020WedOct2103:41:052020\0\\#,ProcedureUnspecified,BasisUnspecified,\\0,1\C\H,1,1.08704\H,1,1.08704,2,109.471\H,1,1.08704,2,109.471,3,-120,0\H,1,1.08704,2,109.471,3,120,0\\\@

 Total job time:  171.75s(wall), 1336.85s(cpu) 
 Wed Oct 21 03:41:05 2020

        *************************************************************
        *                                                           *
        *  Thank you very much for using Q-Chem.  Have a nice day.  *
        *                                                           *
        *************************************************************


 
User input: 5 of 7 
 
Q-Chem Developer Version!
                  Welcome to Q-Chem
     A Quantum Leap Into The Future Of Chemistry


 Q-Chem 5.1, Q-Chem, Inc., Pleasanton, CA (2018)

 Yihan Shao,  Zhengting Gan,  E. Epifanovsky,  A. T. B. Gilbert,  M. Wormit,  
 J. Kussmann,  A. W. Lange,  A. Behn,  Jia Deng,  Xintian Feng,  D. Ghosh,  
 M. Goldey,  P. R. Horn,  L. D. Jacobson,  I. Kaliman,  T. Kus,  A. Landau,  
 Jie Liu,  E. I. Proynov,  R. M. Richard,  R. P. Steele,  E. J. Sundstrom,  
 H. L. Woodcock III,  P. M. Zimmerman,  D. Zuev,  B. Albrecht,  E. Alguire,  
 S. A. Baeppler,  D. Barton,  Z. Benda,  Y. A. Bernard,  E. J. Berquist,  
 K. B. Bravaya,  H. Burton,  D. Casanova,  Chun-Min Chang,  Yunqing Chen,  
 A. Chien,  K. D. Closser,  M. P. Coons,  S. Coriani,  S. Dasgupta,  
 A. L. Dempwolff,  M. Diedenhofen,  Hainam Do,  R. G. Edgar,  Po-Tung Fang,  
 S. Faraji,  S. Fatehi,  Qingguo Feng,  K. D. Fenk,  J. Fosso-Tande,  
 Qinghui Ge,  A. Ghysels,  G. Gidofalvi,  J. Gomes,  J. Gonthier,  A. Gunina,  
 D. Hait,  M. W. D. Hanson-Heine,  P. H. P. Harbach,  A. W. Hauser,  
 J. E. Herr,  E. G. Hohenstein,  Z. C. Holden,  Kerwin Hui,  B. C. Huynh,  
 T.-C. Jagau,  Hyunjun Ji,  B. Kaduk,  K. Khistyaev,  Jaehoon Kim,  
 P. Klunzinger,  K. Koh,  D. Kosenkov,  L. Koulias,  T. Kowalczyk,  
 C. M. Krauter,  A. Kunitsa,  Ka Un Lao,  A. Laurent,  K. V. Lawler,  
 Joonho Lee,  D. Lefrancois,  S. Lehtola,  D. S. Levine,  Yi-Pei Li,  
 You-Sheng Lin,  Fenglai Liu,  E. Livshits,  A. Luenser,  P. Manohar,  
 E. Mansoor,  S. F. Manzer,  Shan-Ping Mao,  Yuezhi Mao,  N. Mardirossian,  
 A. V. Marenich,  T. Markovich,  L. A. Martinez-Martinez,  S. A. Maurer,  
 N. J. Mayhall,  S. C. McKenzie,  J.-M. Mewes,  A. F. Morrison,  
 J. W. Mullinax,  K. Nanda,  T. S. Nguyen-Beck,  R. Olivares-Amaya,  
 J. A. Parkhill,  T. M. Perrine,  F. Plasser,  P. Pokhilko,  S. Prager,  
 A. Prociuk,  E. Ramos,  D. R. Rehn,  F. Rob,  M. Schneider,  N. Sergueev,  
 S. M. Sharada,  S. Sharma,  D. W. Small,  T. Stauch,  T. Stein,  
 Yu-Chuan Su,  A. J. W. Thom,  A. Tkatchenko,  T. Tsuchimochi,  N. M. Tubman,  
 L. Vogt,  M. L. Vidal,  O. Vydrov,  M. A. Watson,  J. Wenzel,  
 M. de Wergifosse,  T. A. Wesolowski,  A. White,  J. Witte,  A. Yamada,  
 Jun Yang,  K. Yao,  S. Yeganeh,  S. R. Yost,  Zhi-Qiang You,  A. Zech,  
 Igor Ying Zhang,  Xing Zhang,  Yan Zhao,  Ying Zhu,  B. R. Brooks,  
 G. K. L. Chan,  C. J. Cramer,  M. S. Gordon,  W. J. Hehre,  A. Klamt,  
 M. W. Schmidt,  C. D. Sherrill,  D. G. Truhlar,  A. Aspuru-Guzik,  R. Baer,  
 A. T. Bell,  N. A. Besley,  Jeng-Da Chai,  A. E. DePrince, III,  
 R. A. DiStasio Jr.,  A. Dreuw,  B. D. Dunietz,  T. R. Furlani,  
 Chao-Ping Hsu,  Yousung Jung,  Jing Kong,  D. S. Lambrecht,  WanZhen Liang,  
 C. Ochsenfeld,  V. A. Rassolov,  L. V. Slipchenko,  J. E. Subotnik,  
 T. Van Voorhis,  J. M. Herbert,  A. I. Krylov,  P. M. W. Gill,  M. Head-Gordon

 Contributors to earlier versions of Q-Chem not listed above: 
 R. D. Adamson,  B. Austin,  J. Baker,  G. J. O. Beran,  K. Brandhorst,  
 S. T. Brown,  E. F. C. Byrd,  A. K. Chakraborty,  C.-L. Cheng,  
 Siu Hung Chien,  D. M. Chipman,  D. L. Crittenden,  H. Dachsel,  
 R. J. Doerksen,  A. D. Dutoi,  L. Fusti-Molnar,  W. A. Goddard III,  
 A. Golubeva-Zadorozhnaya,  S. R. Gwaltney,  G. Hawkins,  A. Heyden,  
 S. Hirata,  G. Kedziora,  F. J. Keil,  C. Kelley,  Jihan Kim,  R. A. King,  
 R. Z. Khaliullin,  P. P. Korambath,  W. Kurlancheek,  A. M. Lee,  M. S. Lee,  
 S. V. Levchenko,  Ching Yeh Lin,  D. Liotard,  R. C. Lochan,  I. Lotan,  
 P. E. Maslen,  N. Nair,  D. P. O'Neill,  D. Neuhauser,  E. Neuscamman,  
 C. M. Oana,  R. Olson,  B. Peters,  R. Peverati,  P. A. Pieniazek,  
 Y. M. Rhee,  J. Ritchie,  M. A. Rohrdanz,  E. Rosta,  N. J. Russ,  
 H. F. Schaefer III,  N. E. Schultz,  N. Shenvi,  A. C. Simmonett,  A. Sodt,  
 D. Stuck,  K. S. Thanthiriwatte,  V. Vanovschi,  Tao Wang,  A. Warshel,  
 C. F. Williams,  Q. Wu,  X. Xu,  W. Zhang

 Please cite Q-Chem as follows:
 Y. Shao et al., Mol. Phys. 113, 184-215 (2015)
 DOI: 10.1080/00268976.2014.952696

 Q-Chem 5.1.1 for Intel X86 EM64T Linux

 Parts of Q-Chem use Armadillo 8.300.2 (Tropical Shenanigans).
 http://arma.sourceforge.net/

 Q-Chem begins on Wed Oct 21 03:41:05 2020  

Host: n0070.mhg0
0

     Scratch files written to /local/scratch/users/yhljason/CH4_XYGJOS_aug-cc-pcVQZ.inp20201021032841//
The previous job contains 0 fragments, simply inherited here
Input Ideriv = 2
Curr. Ideriv = -1
Max.  Ideriv = 2

Checking the input file for inconsistencies... 	...done.

--------------------------------------------------------------
User input:
--------------------------------------------------------------
$molecule
read
$end

$rem

jobtype sp
exchange XYGJOS
xc_grid 000099000590
basis aug-cc-pcVQZ
aux_basis rimp2-aug-cc-pVQZ
max_scf_cycles 200
thresh 14
scf_convergence 8
mem_total 128000
cc_memory 96000
cc_backend xm
mem_static 1500
symmetry false
sym_ignore true
scf_guess read
unrestricted false
scf_algorithm gdm
n_frozen_core 0
$end

$multipole_field
YY -0.0001
$end


--------------------------------------------------------------
 ----------------------------------------------------------------
             Standard Nuclear Orientation (Angstroms)
    I     Atom           X                Y                Z
 ----------------------------------------------------------------
    1      C       0.0000000000     0.0000000000     0.0000000000
    2      H       0.6276000000     0.6276000000     0.6276000000
    3      H       0.6276000000    -0.6276000000    -0.6276000000
    4      H      -0.6276000000     0.6276000000    -0.6276000000
    5      H      -0.6276000000    -0.6276000000     0.6276000000
 ----------------------------------------------------------------
 Nuclear Repulsion Energy =    13.4720345843 hartrees
 There are        5 alpha and        5 beta electrons
 Requested basis set is aug-cc-pCVQZ
 There are 85 shells and 293 basis functions

 Total QAlloc Memory Limit 128000 MB
 Mega-Array Size      1467 MB
 MEM_STATIC part      1500 MB

                       Distance Matrix (Angstroms)
             C (  1)   H (  2)   H (  3)   H (  4)
   H (  2)  1.087035
   H (  3)  1.087035  1.775121
   H (  4)  1.087035  1.775121  1.775121
   H (  5)  1.087035  1.775121  1.775121  1.775121
 
 Applying Cartesian multipole field
    Component          Value
    ---------          -----
     (0,2,0)       -1.00000E-04
 Nucleus-field energy     =    -0.0005626309 hartrees
 Requested basis set is rimp2-aug-cc-pVQZ
 There are 116 shells and 488 basis functions
 A cutoff of  1.0D-14 yielded   3655 shell pairs
 There are     43647 function pairs (     65712 Cartesian)
 
 -------------------------------------------------------
 OpenMP Integral Computing Module                       
 Release: version 1.0, May 2013, Q-Chem Inc. Pittsburgh 
 -------------------------------------------------------
 Integral Job Info:
 Integral job number is                      11
 Integral operator is                         1
 short-range coefficients                     0
 long-range coefficients              100000000
 Omega coefficients                           0
 if combine SR and LR in K                    0
 Integral screening is                        0
 Integral computing path is                   2
 max size of driver memory is           3200000
 size of driver memory is               1704330
 size of scratch memory is             18511652
 max col of scratch BK array              50625
 max len of scratch array in speh3         2114
 max len of scratch index in speh4           50
 max int batch size is                      520
 min int batch size is                       52
 fixed nKL is                                52
 max L of basis functions is                  4
 order of int derivative is                   0
 number of shells is                         85
 number of basis is                         359
 number of cartesian basis is               359
 number of contracted shell pairs          3655
 number of primitive shell pairs           6135
 maxK2 (contraction) of shell pair           81
 max number of K2 of shell pair               1
 max number of CS2 of shell pair            533
 max number of PS2 of shell pair            533
 mem total for path MDJ                  736752
 -------------------------------------------------------
 Smallest overlap matrix eigenvalue = 1.90E-05
 Guess MOs from SCF MO coefficient file
 Reading MOs from coefficient file
 Reading MOs from coefficient file
 A restricted hybrid HF-DFT SCF calculation will be
 performed using Geometric Direct Minimization
 Exchange:     0.2000 Hartree-Fock + 0.0800 Slater + 0.7200 B88
 Correlation:  0.1900 VWN1RPA + 0.8100 LYP
 Using Euler-Maclaurin-Lebedev (99,590) quadrature formula
 SCF converges when RMS gradient is below 1.0E-08
Using Q-Chem read-in guess as SCF_GUESS READ specified.

 using 8 threads for integral computing
 -------------------------------------------------------
 OpenMP Integral computing Module                
 Release: version 2.0, May 2017, Q-Chem Inc. Pleasanton 
 -------------------------------------------------------
TIMEINFO->: J/JK contribution 144.49 sec.
 -------------------------------------------------------
 OpenMP BLAS3 based DFT computing Module                
 Release: version 1.0, May 2013, Q-Chem Inc. Pittsburgh 
 -------------------------------------------------------
 ---------------------------------------
  Cycle       Energy        RMS Gradient
 ---------------------------------------
    1     -40.5414512672      5.62E-04 Normal BFGS step
TIMEINFO->: J/JK contribution 150.34 sec.
    2     -40.5414525644      2.81E-04 Normal BFGS step
TIMEINFO->: J/JK contribution 149.74 sec.
[...]
 97.610  97.610  97.619  97.619  97.619  97.667 114.057 114.057
114.512 114.512 114.512 123.279 224.296 224.296 224.296 507.990
 --------------------------------------------------------------
 
          Ground-State Mulliken Net Atomic Charges

     Atom                 Charge (a.u.)
  ----------------------------------------
      1 C                    -1.067402
      2 H                     0.266851
      3 H                     0.266851
      4 H                     0.266851
      5 H                     0.266851
  ----------------------------------------
  Sum of atomic charges =     0.000000

 -----------------------------------------------------------------
                    Cartesian Multipole Moments
 -----------------------------------------------------------------
    Charge (ESU x 10^10)
                 0.0000
    Dipole Moment (Debye)
         X       0.0000      Y       0.0000      Z       0.0000
       Tot       0.0000
    Quadrupole Moments (Debye-Ang)
        XX      -8.4842     XY       0.0000     YY      -8.4842
        XZ       0.0000     YZ       0.0000     ZZ      -8.4950
    Octopole Moments (Debye-Ang^2)
       XXX       0.0000    XXY       0.0000    XYY       0.0000
       YYY       0.0000    XXZ       0.0000    XYZ       0.6794
       YYZ       0.0000    XZZ       0.0000    YZZ       0.0000
       ZZZ       0.0000
    Hexadecapole Moments (Debye-Ang^3)
      XXXX     -17.3088   XXXY       0.0000   XXYY      -5.2548
      XYYY       0.0000   YYYY     -17.3088   XXXZ       0.0000
      XXYZ       0.0000   XYYZ       0.0000   YYYZ       0.0000
      XXZZ      -5.2640   XYZZ       0.0000   YYZZ      -5.2640
      XZZZ       0.0000   YZZZ       0.0000   ZZZZ     -17.3549
 -----------------------------------------------------------------
Archival summary:
1\1\n0070.mhg0\SP\ProcedureUnspecified\BasisUnspecified\14\yhljason\WedOct2103:46:522020WedOct2103:46:522020\0\\#,ProcedureUnspecified,BasisUnspecified,\\0,1\C\H,1,1.08704\H,1,1.08704,2,109.471\H,1,1.08704,2,109.471,3,-120,0\H,1,1.08704,2,109.471,3,120,0\\\@

 Total job time:  175.53s(wall), 1341.62s(cpu) 
 Wed Oct 21 03:46:52 2020

        *************************************************************
        *                                                           *
        *  Thank you very much for using Q-Chem.  Have a nice day.  *
        *                                                           *
        *************************************************************


 
User input: 7 of 7 
 
Q-Chem Developer Version!
                  Welcome to Q-Chem
     A Quantum Leap Into The Future Of Chemistry


 Q-Chem 5.1, Q-Chem, Inc., Pleasanton, CA (2018)

 Yihan Shao,  Zhengting Gan,  E. Epifanovsky,  A. T. B. Gilbert,  M. Wormit,  
 J. Kussmann,  A. W. Lange,  A. Behn,  Jia Deng,  Xintian Feng,  D. Ghosh,  
 M. Goldey,  P. R. Horn,  L. D. Jacobson,  I. Kaliman,  T. Kus,  A. Landau,  
 Jie Liu,  E. I. Proynov,  R. M. Richard,  R. P. Steele,  E. J. Sundstrom,  
 H. L. Woodcock III,  P. M. Zimmerman,  D. Zuev,  B. Albrecht,  E. Alguire,  
 S. A. Baeppler,  D. Barton,  Z. Benda,  Y. A. Bernard,  E. J. Berquist,  
 K. B. Bravaya,  H. Burton,  D. Casanova,  Chun-Min Chang,  Yunqing Chen,  
 A. Chien,  K. D. Closser,  M. P. Coons,  S. Coriani,  S. Dasgupta,  
 A. L. Dempwolff,  M. Diedenhofen,  Hainam Do,  R. G. Edgar,  Po-Tung Fang,  
 S. Faraji,  S. Fatehi,  Qingguo Feng,  K. D. Fenk,  J. Fosso-Tande,  
 Qinghui Ge,  A. Ghysels,  G. Gidofalvi,  J. Gomes,  J. Gonthier,  A. Gunina,  
 D. Hait,  M. W. D. Hanson-Heine,  P. H. P. Harbach,  A. W. Hauser,  
 J. E. Herr,  E. G. Hohenstein,  Z. C. Holden,  Kerwin Hui,  B. C. Huynh,  
 T.-C. Jagau,  Hyunjun Ji,  B. Kaduk,  K. Khistyaev,  Jaehoon Kim,  
 P. Klunzinger,  K. Koh,  D. Kosenkov,  L. Koulias,  T. Kowalczyk,  
 C. M. Krauter,  A. Kunitsa,  Ka Un Lao,  A. Laurent,  K. V. Lawler,  
 Joonho Lee,  D. Lefrancois,  S. Lehtola,  D. S. Levine,  Yi-Pei Li,  
 You-Sheng Lin,  Fenglai Liu,  E. Livshits,  A. Luenser,  P. Manohar,  
 E. Mansoor,  S. F. Manzer,  Shan-Ping Mao,  Yuezhi Mao,  N. Mardirossian,  
 A. V. Marenich,  T. Markovich,  L. A. Martinez-Martinez,  S. A. Maurer,  
 N. J. Mayhall,  S. C. McKenzie,  J.-M. Mewes,  A. F. Morrison,  
 J. W. Mullinax,  K. Nanda,  T. S. Nguyen-Beck,  R. Olivares-Amaya,  
 J. A. Parkhill,  T. M. Perrine,  F. Plasser,  P. Pokhilko,  S. Prager,  
 A. Prociuk,  E. Ramos,  D. R. Rehn,  F. Rob,  M. Schneider,  N. Sergueev,  
 S. M. Sharada,  S. Sharma,  D. W. Small,  T. Stauch,  T. Stein,  
 Yu-Chuan Su,  A. J. W. Thom,  A. Tkatchenko,  T. Tsuchimochi,  N. M. Tubman,  
 L. Vogt,  M. L. Vidal,  O. Vydrov,  M. A. Watson,  J. Wenzel,  
 M. de Wergifosse,  T. A. Wesolowski,  A. White,  J. Witte,  A. Yamada,  
 Jun Yang,  K. Yao,  S. Yeganeh,  S. R. Yost,  Zhi-Qiang You,  A. Zech,  
 Igor Ying Zhang,  Xing Zhang,  Yan Zhao,  Ying Zhu,  B. R. Brooks,  
 G. K. L. Chan,  C. J. Cramer,  M. S. Gordon,  W. J. Hehre,  A. Klamt,  
 M. W. Schmidt,  C. D. Sherrill,  D. G. Truhlar,  A. Aspuru-Guzik,  R. Baer,  
 A. T. Bell,  N. A. Besley,  Jeng-Da Chai,  A. E. DePrince, III,  
 R. A. DiStasio Jr.,  A. Dreuw,  B. D. Dunietz,  T. R. Furlani,  
 Chao-Ping Hsu,  Yousung Jung,  Jing Kong,  D. S. Lambrecht,  WanZhen Liang,  
 C. Ochsenfeld,  V. A. Rassolov,  L. V. Slipchenko,  J. E. Subotnik,  
 T. Van Voorhis,  J. M. Herbert,  A. I. Krylov,  P. M. W. Gill,  M. Head-Gordon

 Contributors to earlier versions of Q-Chem not listed above: 
 R. D. Adamson,  B. Austin,  J. Baker,  G. J. O. Beran,  K. Brandhorst,  
 S. T. Brown,  E. F. C. Byrd,  A. K. Chakraborty,  C.-L. Cheng,  
 Siu Hung Chien,  D. M. Chipman,  D. L. Crittenden,  H. Dachsel,  
 R. J. Doerksen,  A. D. Dutoi,  L. Fusti-Molnar,  W. A. Goddard III,  
 A. Golubeva-Zadorozhnaya,  S. R. Gwaltney,  G. Hawkins,  A. Heyden,  
 S. Hirata,  G. Kedziora,  F. J. Keil,  C. Kelley,  Jihan Kim,  R. A. King,  
 R. Z. Khaliullin,  P. P. Korambath,  W. Kurlancheek,  A. M. Lee,  M. S. Lee,  
 S. V. Levchenko,  Ching Yeh Lin,  D. Liotard,  R. C. Lochan,  I. Lotan,  
 P. E. Maslen,  N. Nair,  D. P. O'Neill,  D. Neuhauser,  E. Neuscamman,  
 C. M. Oana,  R. Olson,  B. Peters,  R. Peverati,  P. A. Pieniazek,  
 Y. M. Rhee,  J. Ritchie,  M. A. Rohrdanz,  E. Rosta,  N. J. Russ,  
 H. F. Schaefer III,  N. E. Schultz,  N. Shenvi,  A. C. Simmonett,  A. Sodt,  
 D. Stuck,  K. S. Thanthiriwatte,  V. Vanovschi,  Tao Wang,  A. Warshel,  
 C. F. Williams,  Q. Wu,  X. Xu,  W. Zhang

 Please cite Q-Chem as follows:
 Y. Shao et al., Mol. Phys. 113, 184-215 (2015)
 DOI: 10.1080/00268976.2014.952696

 Q-Chem 5.1.1 for Intel X86 EM64T Linux

 Parts of Q-Chem use Armadillo 8.300.2 (Tropical Shenanigans).
 http://arma.sourceforge.net/

 Q-Chem begins on Wed Oct 21 03:46:52 2020  

Host: n0070.mhg0
0

     Scratch files written to /local/scratch/users/yhljason/CH4_XYGJOS_aug-cc-pcVQZ.inp20201021032841//
The previous job contains 0 fragments, simply inherited here
Input Ideriv = 2
Curr. Ideriv = -1
Max.  Ideriv = 2

Checking the input file for inconsistencies... 	...done.

--------------------------------------------------------------
User input:
--------------------------------------------------------------
$molecule
read
$end

$rem

jobtype sp
exchange XYGJOS
xc_grid 000099000590
basis aug-cc-pcVQZ
aux_basis rimp2-aug-cc-pVQZ
max_scf_cycles 200
thresh 14
scf_convergence 8
mem_total 128000
cc_memory 96000
cc_backend xm
mem_static 1500
symmetry false
sym_ignore true
scf_guess read
unrestricted false
scf_algorithm gdm
n_frozen_core 0
$end

$multipole_field
ZZ -0.0001
$end

--------------------------------------------------------------
 ----------------------------------------------------------------
             Standard Nuclear Orientation (Angstroms)
    I     Atom           X                Y                Z
 ----------------------------------------------------------------
    1      C       0.0000000000     0.0000000000     0.0000000000
    2      H       0.6276000000     0.6276000000     0.6276000000
    3      H       0.6276000000    -0.6276000000    -0.6276000000
    4      H      -0.6276000000     0.6276000000    -0.6276000000
    5      H      -0.6276000000    -0.6276000000     0.6276000000
 ----------------------------------------------------------------
 Nuclear Repulsion Energy =    13.4720345843 hartrees
 There are        5 alpha and        5 beta electrons
 Requested basis set is aug-cc-pCVQZ
 There are 85 shells and 293 basis functions

 Total QAlloc Memory Limit 128000 MB
 Mega-Array Size      1467 MB
 MEM_STATIC part      1500 MB

                       Distance Matrix (Angstroms)
             C (  1)   H (  2)   H (  3)   H (  4)
   H (  2)  1.087035
   H (  3)  1.087035  1.775121
   H (  4)  1.087035  1.775121  1.775121
   H (  5)  1.087035  1.775121  1.775121  1.775121
 
 Applying Cartesian multipole field
    Component          Value
    ---------          -----
     (0,0,2)       -1.00000E-04
 Nucleus-field energy     =    -0.0005626309 hartrees
 Requested basis set is rimp2-aug-cc-pVQZ
 There are 116 shells and 488 basis functions
 A cutoff of  1.0D-14 yielded   3655 shell pairs
 There are     43647 function pairs (     65712 Cartesian)
 
 -------------------------------------------------------
 OpenMP Integral Computing Module                       
 Release: version 1.0, May 2013, Q-Chem Inc. Pittsburgh 
 -------------------------------------------------------
 Integral Job Info:
 Integral job number is                      11
 Integral operator is                         1
 short-range coefficients                     0
 long-range coefficients              100000000
 Omega coefficients                           0
 if combine SR and LR in K                    0
 Integral screening is                        0
 Integral computing path is                   2
 max size of driver memory is           3200000
 size of driver memory is               1704330
 size of scratch memory is             18511652
 max col of scratch BK array              50625
 max len of scratch array in speh3         2114
 max len of scratch index in speh4           50
 max int batch size is                      520
 min int batch size is                       52
 fixed nKL is                                52
 max L of basis functions is                  4
 order of int derivative is                   0
 number of shells is                         85
 number of basis is                         359
 number of cartesian basis is               359
 number of contracted shell pairs          3655
 number of primitive shell pairs           6135
 maxK2 (contraction) of shell pair           81
 max number of K2 of shell pair               1
 max number of CS2 of shell pair            533
 max number of PS2 of shell pair            533
 mem total for path MDJ                  736752
 -------------------------------------------------------
 Smallest overlap matrix eigenvalue = 1.90E-05
 Guess MOs from SCF MO coefficient file
 Reading MOs from coefficient file
 Reading MOs from coefficient file
 A restricted hybrid HF-DFT SCF calculation will be
 performed using Geometric Direct Minimization
 Exchange:     0.2000 Hartree-Fock + 0.0800 Slater + 0.7200 B88
 Correlation:  0.1900 VWN1RPA + 0.8100 LYP
 Using Euler-Maclaurin-Lebedev (99,590) quadrature formula
 SCF converges when RMS gradient is below 1.0E-08
Using Q-Chem read-in guess as SCF_GUESS READ specified.

 using 8 threads for integral computing
 -------------------------------------------------------
 OpenMP Integral computing Module                
 Release: version 2.0, May 2017, Q-Chem Inc. Pleasanton 
 -------------------------------------------------------
TIMEINFO->: J/JK contribution 152.78 sec.
 -------------------------------------------------------
 OpenMP BLAS3 based DFT computing Module                
 Release: version 1.0, May 2013, Q-Chem Inc. Pittsburgh 
 -------------------------------------------------------
 ---------------------------------------
  Cycle       Energy        RMS Gradient
 ---------------------------------------
    1     -40.5414512672      5.62E-04 Normal BFGS step
TIMEINFO->: J/JK contribution 149.07 sec.
    2     -40.5414525644      2.52E-04 Normal BFGS step
TIMEINFO->: J/JK contribution 143.19 sec.
    3     -40.5414529519      9.28E-05 Normal BFGS step
TIMEINFO->: J/JK contribution 149.65 sec.
    4     -40.5414530231      8.15E-06 Normal BFGS step
TIMEINFO->: J/JK contribution 147.31 sec.
    5     -40.5414530239      9.55E-07 Normal BFGS step
TIMEINFO->: J/JK contribution 144.28 sec.
    6     -40.5414530239      3.05E-08 Normal BFGS step
TIMEINFO->: J/JK contribution 133.32 sec.
    7     -40.5414530239      8.40E-10 Convergence criterion met
 ---------------------------------------
 B3LYP orbitals are now ready for the XYGJ-OS calculation.
 XYGJ-OS energy = Exch (0.7731 HF  + 0.2269 Slater) + 
                  Corr (0.2754 LYP + 0.2309 VWN1RPA + 0.4364 OS-MP2)
 SCF time:  CPU 1272.84 s  wall 164.38 s
 SCF   energy in the final basis set = -40.31453030
 Total energy in the final basis set = -40.31453030
 Entering Scaled Opposite Spin MP2
 NBasAux in rimp2.F =          488

 OS-MP2 job begins now...

 SOS scaling factor =  0.4
 Form (P|Q)**(-1/2)...
 
 Form (ia|P)...
 Form BiaQ = (ia|P)*(P|Q)**(-1/2)...
 Laplace quadrature loop begins
 Laplace point 1: correlation energy     =        -0.0561461669
 Laplace point 2: correlation energy     =        -0.0659149761
 Laplace point 3: correlation energy     =        -0.0828653431
 Laplace point 4: correlation energy     =        -0.0622248238
 Laplace point 5: correlation energy     =        -0.0166145695
 Laplace point 6: correlation energy     =        -0.0007116194
 Laplace point 7: correlation energy     =        -0.0000011240
 
 singles contribution not yet available for XYGJ-OS 
 Total OS-MP2 correlation energy         =        -0.2844786228

 Total XYGJ-OS energy                    =       -40.4386767685
 
 ------------------------------------------------------------------------------
                     SOSMP2        : Timing summary (seconds)
 ------------------------------------------------------------------------------
     job step          cpu (% of tot)      sys (% of tot)     wall (% of tot)
 ------------------------------------------------------------------------------
  Form inv (P|Q)    0.8847E+00 ( 2.9)   0.4000E-05 ( 3.4)   0.1994E+00 ( 4.5)
  Form (ia|P)       0.2742E+02 (89.8)   0.1040E-03 (87.4)   0.3440E+01 (77.9)
  Form  BiaQ        0.7475E+00 ( 2.4)   0.5000E-05 ( 4.2)   0.9383E-01 ( 2.1)
  LP orbitals       0.1671E+00 ( 0.5)   0.3000E-05 ( 2.5)   0.7668E-01 ( 1.7)
  Form  X(PQ)       0.9789E+00 ( 3.2)   0.3000E-05 ( 2.5)   0.3969E+00 ( 9.0)
  Increment EMP2    0.2683E+00 ( 0.9)   0.0000E+00 ( 0.0)   0.1520E+00 ( 3.4)
 ------------------------------------------------------------------------------
   Grand Totals     0.3054E+02          0.1190E-03          0.4418E+01
 ------------------------------------------------------------------------------
 
 --------------------------------------------------------------
 
                    Orbital Energies (a.u.)
 --------------------------------------------------------------
 
 Alpha MOs
 -- Occupied --
-10.154  -0.697  -0.396  -0.396  -0.396
 -- Virtual --
 -0.007   0.025   0.025   0.028   0.075   0.075   0.075   0.077
  0.117   0.117   0.118   0.137   0.138   0.208   0.208   0.209
  0.216   0.232   0.232   0.232   0.244   0.244   0.245   0.263
  0.287   0.287   0.288   0.350   0.350   0.446   0.447   0.458
  0.458   0.459   0.485   0.581   0.581   0.581   0.591   0.591
  0.592   0.627   0.627   0.628   0.640   0.658   0.658   0.659
  0.703   0.703   0.703   0.775   0.801   0.801   0.801   0.810
  0.811   0.852   0.852   0.950   0.966   0.966   0.967   1.008
  1.008   1.009   1.094   1.094   1.095   1.216   1.216   1.216
  1.305   1.305   1.305   1.354   1.402   1.402   1.402   1.501
  1.501   1.642   1.642   1.643   1.704   1.705   1.705   1.712
  1.731   1.731   1.761   1.761   1.761   1.798   1.815   1.815
  1.842   1.842   1.842   1.912   1.912   1.912   1.932   1.932
  1.933   1.977   2.004   2.051   2.051   2.051   2.090   2.090
  2.090   2.203   2.203   2.203   2.451   2.451   2.451   2.472
  2.472   2.551   2.551   2.551   2.569   2.577   2.578   2.578
  2.783   2.783   2.784   2.784   2.784   2.916   2.916   2.916
  2.954   3.115   3.115   3.436   3.436   3.436   3.438   3.438
  3.438   3.582   3.644   3.644   3.644   3.737   3.737   3.737
  3.811   3.811   3.811   3.886   3.970   3.970   3.983   3.983
  3.983   4.060   4.060   4.417   4.417   4.417   4.641   4.641
  4.641   4.714   5.593   5.593   5.593   5.736   5.736   5.878
  5.878   5.878   6.152   6.413   6.439   6.439   6.439   6.452
  6.452   6.452   6.567   6.567   6.567   6.618   6.618   6.618
  6.838   6.838   6.838   6.941   6.941   6.941   6.967   7.174
  7.352   7.352   7.502   7.502   7.502   7.524   7.524   7.525
  7.671   7.671   8.049   8.049   8.049   8.144   8.210   8.210
  8.210   8.224   8.225   8.751   8.751   8.751   8.802   8.802
  8.802   8.896   8.896   8.896   9.002   9.002   9.002   9.124
  9.236   9.236   9.571   9.571   9.643   9.643   9.643   9.846
  9.846   9.847   9.903   9.903  10.125  10.125  10.125  10.428
 10.463  10.463  10.463  11.088  11.088  11.088  12.532  12.532
 12.532  12.687  14.376  20.705  20.705  20.705  26.477  26.477
 27.385  27.385  27.385  38.182  67.077  67.077  67.077  97.611
 97.611  97.611  97.620  97.620  97.620  97.667 114.058 114.058
114.512 114.512 114.512 123.280 224.297 224.297 224.297 507.990
 --------------------------------------------------------------
 
          Ground-State Mulliken Net Atomic Charges

     Atom                 Charge (a.u.)
  ----------------------------------------
      1 C                    -1.066072
      2 H                     0.266518
      3 H                     0.266518
      4 H                     0.266518
      5 H                     0.266518
  ----------------------------------------
  Sum of atomic charges =     0.000000

 -----------------------------------------------------------------
                    Cartesian Multipole Moments
 -----------------------------------------------------------------
    Charge (ESU x 10^10)
                 0.0000
    Dipole Moment (Debye)
         X       0.0000      Y       0.0000      Z       0.0000
       Tot       0.0000
    Quadrupole Moments (Debye-Ang)
        XX      -8.4822     XY       0.0000     YY      -8.4822
        XZ       0.0000     YZ       0.0000     ZZ      -8.4715
    Octopole Moments (Debye-Ang^2)
       XXX      -0.0000    XXY       0.0000    XYY       0.0000
       YYY       0.0000    XXZ       0.0000    XYZ       0.6833
       YYZ      -0.0000    XZZ       0.0000    YZZ       0.0000
       ZZZ       0.0000
    Hexadecapole Moments (Debye-Ang^3)
      XXXX     -17.3001   XXXY       0.0000   XXYY      -5.2521
      XYYY       0.0000   YYYY     -17.3001   XXXZ       0.0000
      XXYZ       0.0000   XYYZ       0.0000   YYYZ       0.0000
      XXZZ      -5.2430   XYZZ       0.0000   YYZZ      -5.2430
      XZZZ       0.0000   YZZZ       0.0000   ZZZZ     -17.2546
 -----------------------------------------------------------------
Archival summary:
1\1\n0070.mhg0\SP\ProcedureUnspecified\BasisUnspecified\14\yhljason\WedOct2103:49:422020WedOct2103:49:422020\0\\#,ProcedureUnspecified,BasisUnspecified,\\0,1\C\H,1,1.08704\H,1,1.08704,2,109.471\H,1,1.08704,2,109.471,3,-120,0\H,1,1.08704,2,109.471,3,120,0\\\@

 Total job time:  170.53s(wall), 1312.23s(cpu) 
 Wed Oct 21 03:49:42 2020

        *************************************************************
        *                                                           *
        *  Thank you very much for using Q-Chem.  Have a nice day.  *
        *                                                           *
        *************************************************************


