Q-Chem Developer Version!
                  Welcome to Q-Chem
     A Quantum Leap Into The Future Of Chemistry


 Q-Chem 5.1, Q-Chem, Inc., Pleasanton, CA (2018)

 Yihan Shao,  Zhengting Gan,  E. Epifanovsky,  A. T. B. Gilbert,  M. Wormit,  
 J. Kussmann,  A. W. Lange,  A. Behn,  Jia Deng,  Xintian Feng,  D. Ghosh,  
 M. Goldey,  P. R. Horn,  L. D. Jacobson,  I. Kaliman,  T. Kus,  A. Landau,  
 Jie Liu,  E. I. Proynov,  R. M. Richard,  R. P. Steele,  E. J. Sundstrom,  
 H. L. Woodcock III,  P. M. Zimmerman,  D. Zuev,  B. Albrecht,  E. Alguire,  
 S. A. Baeppler,  D. Barton,  Z. Benda,  Y. A. Bernard,  E. J. Berquist,  
 K. B. Bravaya,  H. Burton,  D. Casanova,  Chun-Min Chang,  Yunqing Chen,  
 A. Chien,  K. D. Closser,  M. P. Coons,  S. Coriani,  S. Dasgupta,  
 A. L. Dempwolff,  M. Diedenhofen,  Hainam Do,  R. G. Edgar,  Po-Tung Fang,  
 S. Faraji,  S. Fatehi,  Qingguo Feng,  K. D. Fenk,  J. Fosso-Tande,  
 Qinghui Ge,  A. Ghysels,  G. Gidofalvi,  J. Gomes,  J. Gonthier,  A. Gunina,  
 D. Hait,  M. W. D. Hanson-Heine,  P. H. P. Harbach,  A. W. Hauser,  
 J. E. Herr,  E. G. Hohenstein,  Z. C. Holden,  Kerwin Hui,  B. C. Huynh,  
 T.-C. Jagau,  Hyunjun Ji,  B. Kaduk,  K. Khistyaev,  Jaehoon Kim,  
 P. Klunzinger,  K. Koh,  D. Kosenkov,  L. Koulias,  T. Kowalczyk,  
 C. M. Krauter,  A. Kunitsa,  Ka Un Lao,  A. Laurent,  K. V. Lawler,  
 Joonho Lee,  D. Lefrancois,  S. Lehtola,  D. S. Levine,  Yi-Pei Li,  
 You-Sheng Lin,  Fenglai Liu,  E. Livshits,  A. Luenser,  P. Manohar,  
 E. Mansoor,  S. F. Manzer,  Shan-Ping Mao,  Yuezhi Mao,  N. Mardirossian,  
 A. V. Marenich,  T. Markovich,  L. A. Martinez-Martinez,  S. A. Maurer,  
 N. J. Mayhall,  S. C. McKenzie,  J.-M. Mewes,  A. F. Morrison,  
 J. W. Mullinax,  K. Nanda,  T. S. Nguyen-Beck,  R. Olivares-Amaya,  
 J. A. Parkhill,  T. M. Perrine,  F. Plasser,  P. Pokhilko,  S. Prager,  
 A. Prociuk,  E. Ramos,  D. R. Rehn,  F. Rob,  M. Schneider,  N. Sergueev,  
 S. M. Sharada,  S. Sharma,  D. W. Small,  T. Stauch,  T. Stein,  
 Yu-Chuan Su,  A. J. W. Thom,  A. Tkatchenko,  T. Tsuchimochi,  N. M. Tubman,  
 L. Vogt,  M. L. Vidal,  O. Vydrov,  M. A. Watson,  J. Wenzel,  
 M. de Wergifosse,  T. A. Wesolowski,  A. White,  J. Witte,  A. Yamada,  
 Jun Yang,  K. Yao,  S. Yeganeh,  S. R. Yost,  Zhi-Qiang You,  A. Zech,  
 Igor Ying Zhang,  Xing Zhang,  Yan Zhao,  Ying Zhu,  B. R. Brooks,  
 G. K. L. Chan,  C. J. Cramer,  M. S. Gordon,  W. J. Hehre,  A. Klamt,  
 M. W. Schmidt,  C. D. Sherrill,  D. G. Truhlar,  A. Aspuru-Guzik,  R. Baer,  
 A. T. Bell,  N. A. Besley,  Jeng-Da Chai,  A. E. DePrince, III,  
 R. A. DiStasio Jr.,  A. Dreuw,  B. D. Dunietz,  T. R. Furlani,  
 Chao-Ping Hsu,  Yousung Jung,  Jing Kong,  D. S. Lambrecht,  WanZhen Liang,  
 C. Ochsenfeld,  V. A. Rassolov,  L. V. Slipchenko,  J. E. Subotnik,  
 T. Van Voorhis,  J. M. Herbert,  A. I. Krylov,  P. M. W. Gill,  M. Head-Gordon

 Contributors to earlier versions of Q-Chem not listed above: 
 R. D. Adamson,  B. Austin,  J. Baker,  G. J. O. Beran,  K. Brandhorst,  
 S. T. Brown,  E. F. C. Byrd,  A. K. Chakraborty,  C.-L. Cheng,  
 Siu Hung Chien,  D. M. Chipman,  D. L. Crittenden,  H. Dachsel,  
 R. J. Doerksen,  A. D. Dutoi,  L. Fusti-Molnar,  W. A. Goddard III,  
 A. Golubeva-Zadorozhnaya,  S. R. Gwaltney,  G. Hawkins,  A. Heyden,  
 S. Hirata,  G. Kedziora,  F. J. Keil,  C. Kelley,  Jihan Kim,  R. A. King,  
 R. Z. Khaliullin,  P. P. Korambath,  W. Kurlancheek,  A. M. Lee,  M. S. Lee,  
 S. V. Levchenko,  Ching Yeh Lin,  D. Liotard,  R. C. Lochan,  I. Lotan,  
 P. E. Maslen,  N. Nair,  D. P. O'Neill,  D. Neuhauser,  E. Neuscamman,  
 C. M. Oana,  R. Olson,  B. Peters,  R. Peverati,  P. A. Pieniazek,  
 Y. M. Rhee,  J. Ritchie,  M. A. Rohrdanz,  E. Rosta,  N. J. Russ,  
 H. F. Schaefer III,  N. E. Schultz,  N. Shenvi,  A. C. Simmonett,  A. Sodt,  
 D. Stuck,  K. S. Thanthiriwatte,  V. Vanovschi,  Tao Wang,  A. Warshel,  
 C. F. Williams,  Q. Wu,  X. Xu,  W. Zhang

 Please cite Q-Chem as follows:
 Y. Shao et al., Mol. Phys. 113, 184-215 (2015)
 DOI: 10.1080/00268976.2014.952696

 Q-Chem 5.1.1 for Intel X86 EM64T Linux

 Parts of Q-Chem use Armadillo 8.300.2 (Tropical Shenanigans).
 http://arma.sourceforge.net/

 Q-Chem begins on Wed Oct 21 03:28:47 2020  

Host: n0072.mhg0
0

     Scratch files written to /local/scratch/users/yhljason/Cl-_XYGJOS_aug-cc-pcVTZ.inp20201021032846//
Input Ideriv = 2
Curr. Ideriv = -1
Max.  Ideriv = 2

Checking the input file for inconsistencies... 	...done.

--------------------------------------------------------------
User input:
--------------------------------------------------------------
$molecule
-1 1
Cl1 0 0 0
$end
$rem
jobtype sp
exchange XYGJOS
xc_grid 000099000590
basis aug-cc-pcVTZ
aux_basis rimp2-aug-cc-pVTZ
max_scf_cycles 200
thresh 14
scf_convergence 8
scf_algorithm gdm
symmetry false
sym_ignore true
unrestricted false
gen_scfman false
internal_stability_iter 15
internal_stability_davidson_iter 200
mem_total 128000
cc_memory 96000
cc_backend xm
mem_static 1500
n_frozen_core 0
$end



--------------------------------------------------------------
 ----------------------------------------------------------------
             Standard Nuclear Orientation (Angstroms)
    I     Atom           X                Y                Z
 ----------------------------------------------------------------
    1      Cl      0.0000000000     0.0000000000     0.0000000000
 ----------------------------------------------------------------
 Nuclear Repulsion Energy =     0.0000000000 hartrees
 There are        9 alpha and        9 beta electrons
 Requested basis set is aug-cc-pCVTZ
 There are 23 shells and 75 basis functions

 Total QAlloc Memory Limit 128000 MB
 Mega-Array Size      1467 MB
 MEM_STATIC part      1500 MB
 Requested basis set is rimp2-aug-cc-pVTZ
 There are 37 shells and 147 basis functions
 A cutoff of  1.0D-14 yielded    276 shell pairs
 There are      2984 function pairs (      4236 Cartesian)
 
 -------------------------------------------------------
 OpenMP Integral Computing Module                       
 Release: version 1.0, May 2013, Q-Chem Inc. Pittsburgh 
 -------------------------------------------------------
 Integral Job Info:
 Integral job number is                      11
 Integral operator is                         1
 short-range coefficients                     0
 long-range coefficients              100000000
 Omega coefficients                           0
 if combine SR and LR in K                    0
 Integral screening is                        0
 Integral computing path is                   2
 max size of driver memory is            800000
 size of driver memory is                776718
 size of scratch memory is             29531563
 max col of scratch BK array              10000
 max len of scratch array in speh3          662
 max len of scratch index in speh4           32
 max int batch size is                      520
 min int batch size is                       52
 fixed nKL is                                31
 max L of basis functions is                  3
 order of int derivative is                   0
 number of shells is                         23
 number of basis is                          89
 number of cartesian basis is                89
 number of contracted shell pairs           276
 number of primitive shell pairs           2832
 maxK2 (contraction) of shell pair          169
 max number of K2 of shell pair               1
 max number of CS2 of shell pair             25
 max number of PS2 of shell pair           1014
 mem total for path MDJ                  541408
 -------------------------------------------------------
 Smallest overlap matrix eigenvalue = 2.31E-03

 Scale SEOQF with 1.000000e-01/1.000000e-01/1.000000e-01

 Standard Electronic Orientation quadrupole field applied
 Guess from superposition of atomic densities
 Warning:  Energy on first SCF cycle will be non-variational
 SAD guess density has 17.000000 electrons
 A restricted hybrid HF-DFT SCF calculation will be
 performed using Pulay DIIS + Geometric Direct Minimization
 Exchange:     0.2000 Hartree-Fock + 0.0800 Slater + 0.7200 B88
 Correlation:  0.1900 VWN1RPA + 0.8100 LYP
 Using Euler-Maclaurin-Lebedev (99,590) quadrature formula
 SCF converges when RMS gradient is below 1.0E-08
 using 8 threads for integral computing
 -------------------------------------------------------
 OpenMP Integral computing Module                
 Release: version 2.0, May 2017, Q-Chem Inc. Pleasanton 
 -------------------------------------------------------
TIMEINFO->: J/JK contribution 3.36 sec.
 -------------------------------------------------------
 OpenMP BLAS3 based DFT computing Module                
 Release: version 1.0, May 2013, Q-Chem Inc. Pittsburgh 
 -------------------------------------------------------
 ---------------------------------------
  Cycle       Energy        RMS Gradient
 ---------------------------------------
    1    -460.1139150551      1.24E-02 Done DIIS. Switching to GDM
TIMEINFO->: J/JK contribution 3.35 sec.
    2    -460.2487279157      1.64E-01 Descent step
TIMEINFO->: J/JK contribution 3.36 sec.
    3    -460.1869770305      2.80E-01 Line search: overstep
TIMEINFO->: J/JK contribution 3.32 sec.
    4    -460.3090292841      4.20E-02 Normal BFGS step
TIMEINFO->: J/JK contribution 3.42 sec.
    5    -460.3131597199      1.54E-02 Normal BFGS step
TIMEINFO->: J/JK contribution 3.31 sec.
    6    -460.3136589792      6.71E-04 Normal BFGS step
TIMEINFO->: J/JK contribution 3.36 sec.
    7    -460.3136606873      5.03E-05 Normal BFGS step
TIMEINFO->: J/JK contribution 3.35 sec.
    8    -460.3136607087      1.29E-05 Normal BFGS step
TIMEINFO->: J/JK contribution 3.23 sec.
    9    -460.3136607097      5.15E-08 Normal BFGS step
TIMEINFO->: J/JK contribution 3.39 sec.
   GDM::WARNING energy changes are now smaller than effective accuracy.
   GDM::        calculation will continue, but THRESH should be increased
   GDM::        or SCF_CONVERGENCE decreased.
   GDM::        effective_thresh =   9.000000000000000E-011
   10    -460.3136607097      1.47E-08 Normal BFGS step
TIMEINFO->: J/JK contribution 3.38 sec.
   11    -460.3136607097      7.14E-09 Convergence criterion met
 ---------------------------------------
 B3LYP orbitals are now ready for the XYGJ-OS calculation.
 XYGJ-OS energy = Exch (0.7731 HF  + 0.2269 Slater) + 
                  Corr (0.2754 LYP + 0.2309 VWN1RPA + 0.4364 OS-MP2)
 SCF time:  CPU 46.48 s  wall 5.89 s
 SCF   energy in the final basis set = -459.68015025
 Total energy in the final basis set = -459.68015025
 Entering Scaled Opposite Spin MP2
 NBasAux in rimp2.F =          147

 OS-MP2 job begins now...

 SOS scaling factor =  0.4
 Form (P|Q)**(-1/2)...
 
 Form (ia|P)...
 Form BiaQ = (ia|P)*(P|Q)**(-1/2)...
 Laplace quadrature loop begins
 Laplace point 1: correlation energy     =        -0.1899762201
 Laplace point 2: correlation energy     =        -0.1096770663
 Laplace point 3: correlation energy     =        -0.0783062670
 Laplace point 4: correlation energy     =        -0.0690002784
 Laplace point 5: correlation energy     =        -0.0261934254
 Laplace point 6: correlation energy     =        -0.0028412875
 Laplace point 7: correlation energy     =        -0.0000900483
 
 singles contribution not yet available for XYGJ-OS 
 Total OS-MP2 correlation energy         =        -0.4760845930

 Total XYGJ-OS energy                    =      -459.8879135665
 
 ------------------------------------------------------------------------------
                     SOSMP2        : Timing summary (seconds)
 ------------------------------------------------------------------------------
     job step          cpu (% of tot)      sys (% of tot)     wall (% of tot)
 ------------------------------------------------------------------------------
  Form inv (P|Q)    0.2293E+00 (10.9)   0.1000E-05 (14.3)   0.2897E-01 (11.0)
  Form (ia|P)       0.1410E+01 (67.2)   0.6000E-05 (85.7)   0.1774E+00 (67.3)
  Form  BiaQ        0.5729E-01 ( 2.7)   0.0000E+00 ( 0.0)   0.7170E-02 ( 2.7)
  LP orbitals       0.8763E-01 ( 4.2)   0.0000E+00 ( 0.0)   0.1096E-01 ( 4.2)
  Form  X(PQ)       0.2157E+00 (10.3)   0.0000E+00 ( 0.0)   0.2697E-01 (10.2)
  Increment EMP2    0.5992E-01 ( 2.9)   0.0000E+00 ( 0.0)   0.7496E-02 ( 2.8)
 ------------------------------------------------------------------------------
   Grand Totals     0.2097E+01          0.7000E-05          0.2636E+00
 ------------------------------------------------------------------------------
 
 --------------------------------------------------------------
 
                    Orbital Energies (a.u.)
 --------------------------------------------------------------
 
 Alpha MOs
 -- Occupied --
*******  -9.135  -6.891  -6.891  -6.891  -0.482  -0.029  -0.029
 -0.029
 -- Virtual --
  0.227   0.227   0.227   0.240   0.462   0.462   0.462   0.462
  0.462   0.721   0.721   0.721   0.884   0.953   0.953   0.953
  0.953   0.953   1.258   1.258   1.258   1.258   1.258   1.258
  1.258   2.308   2.308   2.308   2.308   2.308   2.566   2.566
  2.566   3.017   3.017   3.017   3.017   3.017   3.017   3.017
  3.348   9.998   9.998   9.998   9.998   9.998  12.182  12.182
 12.182  17.387  36.040  36.040  36.040  36.040  36.040  36.040
 36.040  45.443  45.443  45.443  45.443  45.443  53.670  53.670
 53.670 101.103
 --------------------------------------------------------------
 
          Ground-State Mulliken Net Atomic Charges

     Atom                 Charge (a.u.)
  ----------------------------------------
      1 Cl                   -1.000000
  ----------------------------------------
  Sum of atomic charges =    -1.000000

 -----------------------------------------------------------------
                    Cartesian Multipole Moments
 -----------------------------------------------------------------
    Charge (ESU x 10^10)
                -4.8032
    Dipole Moment (Debye)
         X      -0.0000      Y       0.0000      Z       0.0000
       Tot       0.0000
    Quadrupole Moments (Debye-Ang)
        XX     -17.7803     XY       0.0000     YY     -17.7803
        XZ      -0.0000     YZ      -0.0000     ZZ     -17.7803
    Octopole Moments (Debye-Ang^2)
       XXX      -0.0000    XXY       0.0000    XYY       0.0000
       YYY       0.0000    XXZ       0.0000    XYZ       0.0000
       YYZ       0.0000    XZZ      -0.0000    YZZ       0.0000
       ZZZ       0.0000
    Hexadecapole Moments (Debye-Ang^3)
      XXXX     -34.0420   XXXY       0.0000   XXYY     -11.3473
      XYYY       0.0000   YYYY     -34.0420   XXXZ      -0.0000
      XXYZ      -0.0000   XYYZ      -0.0000   YYYZ      -0.0000
      XXZZ     -11.3473   XYZZ       0.0000   YYZZ     -11.3473
      XZZZ      -0.0000   YZZZ      -0.0000   ZZZZ     -34.0420
 -----------------------------------------------------------------

 STANDARD THERMODYNAMIC QUANTITIES AT   298.15 K  AND     1.00 ATM

   Translational Enthalpy:        0.889 kcal/mol
   Rotational Enthalpy:           0.000 kcal/mol
   Vibrational Enthalpy:          0.000 kcal/mol
   gas constant (RT):             0.592 kcal/mol
   Translational Entropy:        36.586  cal/mol.K
   Rotational Entropy:            0.000  cal/mol.K
   Vibrational Entropy:           0.000  cal/mol.K

   Total Enthalpy:                1.481 kcal/mol
   Total Entropy:                36.586  cal/mol.K

 -----------------------------------------------------------------

Archival summary:
1\1\n0072.mhg0\SP\ProcedureUnspecified\BasisUnspecified\l1(1-,1)\yhljason\WedOct2103:28:542020WedOct2103:28:542020\0\\#,ProcedureUnspecified,BasisUnspecified,\\-1,1\Cl\\\@

 Total job time:  6.76s(wall), 52.27s(cpu) 
 Wed Oct 21 03:28:54 2020

        *************************************************************
        *                                                           *
        *  Thank you very much for using Q-Chem.  Have a nice day.  *
        *                                                           *
        *************************************************************


 
User input: 2 of 7 
 
Q-Chem Developer Version!
                  Welcome to Q-Chem
     A Quantum Leap Into The Future Of Chemistry


 Q-Chem 5.1, Q-Chem, Inc., Pleasanton, CA (2018)

 Yihan Shao,  Zhengting Gan,  E. Epifanovsky,  A. T. B. Gilbert,  M. Wormit,  
 J. Kussmann,  A. W. Lange,  A. Behn,  Jia Deng,  Xintian Feng,  D. Ghosh,  
 M. Goldey,  P. R. Horn,  L. D. Jacobson,  I. Kaliman,  T. Kus,  A. Landau,  
 Jie Liu,  E. I. Proynov,  R. M. Richard,  R. P. Steele,  E. J. Sundstrom,  
 H. L. Woodcock III,  P. M. Zimmerman,  D. Zuev,  B. Albrecht,  E. Alguire,  
 S. A. Baeppler,  D. Barton,  Z. Benda,  Y. A. Bernard,  E. J. Berquist,  
 K. B. Bravaya,  H. Burton,  D. Casanova,  Chun-Min Chang,  Yunqing Chen,  
 A. Chien,  K. D. Closser,  M. P. Coons,  S. Coriani,  S. Dasgupta,  
 A. L. Dempwolff,  M. Diedenhofen,  Hainam Do,  R. G. Edgar,  Po-Tung Fang,  
 S. Faraji,  S. Fatehi,  Qingguo Feng,  K. D. Fenk,  J. Fosso-Tande,  
 Qinghui Ge,  A. Ghysels,  G. Gidofalvi,  J. Gomes,  J. Gonthier,  A. Gunina,  
 D. Hait,  M. W. D. Hanson-Heine,  P. H. P. Harbach,  A. W. Hauser,  
 J. E. Herr,  E. G. Hohenstein,  Z. C. Holden,  Kerwin Hui,  B. C. Huynh,  
 T.-C. Jagau,  Hyunjun Ji,  B. Kaduk,  K. Khistyaev,  Jaehoon Kim,  
 P. Klunzinger,  K. Koh,  D. Kosenkov,  L. Koulias,  T. Kowalczyk,  
 C. M. Krauter,  A. Kunitsa,  Ka Un Lao,  A. Laurent,  K. V. Lawler,  
 Joonho Lee,  D. Lefrancois,  S. Lehtola,  D. S. Levine,  Yi-Pei Li,  
 You-Sheng Lin,  Fenglai Liu,  E. Livshits,  A. Luenser,  P. Manohar,  
 E. Mansoor,  S. F. Manzer,  Shan-Ping Mao,  Yuezhi Mao,  N. Mardirossian,  
 A. V. Marenich,  T. Markovich,  L. A. Martinez-Martinez,  S. A. Maurer,  
 N. J. Mayhall,  S. C. McKenzie,  J.-M. Mewes,  A. F. Morrison,  
 J. W. Mullinax,  K. Nanda,  T. S. Nguyen-Beck,  R. Olivares-Amaya,  
 J. A. Parkhill,  T. M. Perrine,  F. Plasser,  P. Pokhilko,  S. Prager,  
 A. Prociuk,  E. Ramos,  D. R. Rehn,  F. Rob,  M. Schneider,  N. Sergueev,  
 S. M. Sharada,  S. Sharma,  D. W. Small,  T. Stauch,  T. Stein,  
 Yu-Chuan Su,  A. J. W. Thom,  A. Tkatchenko,  T. Tsuchimochi,  N. M. Tubman,  
 L. Vogt,  M. L. Vidal,  O. Vydrov,  M. A. Watson,  J. Wenzel,  
 M. de Wergifosse,  T. A. Wesolowski,  A. White,  J. Witte,  A. Yamada,  
 Jun Yang,  K. Yao,  S. Yeganeh,  S. R. Yost,  Zhi-Qiang You,  A. Zech,  
 Igor Ying Zhang,  Xing Zhang,  Yan Zhao,  Ying Zhu,  B. R. Brooks,  
 G. K. L. Chan,  C. J. Cramer,  M. S. Gordon,  W. J. Hehre,  A. Klamt,  
 M. W. Schmidt,  C. D. Sherrill,  D. G. Truhlar,  A. Aspuru-Guzik,  R. Baer,  
 A. T. Bell,  N. A. Besley,  Jeng-Da Chai,  A. E. DePrince, III,  
 R. A. DiStasio Jr.,  A. Dreuw,  B. D. Dunietz,  T. R. Furlani,  
 Chao-Ping Hsu,  Yousung Jung,  Jing Kong,  D. S. Lambrecht,  WanZhen Liang,  
 C. Ochsenfeld,  V. A. Rassolov,  L. V. Slipchenko,  J. E. Subotnik,  
 T. Van Voorhis,  J. M. Herbert,  A. I. Krylov,  P. M. W. Gill,  M. Head-Gordon

 Contributors to earlier versions of Q-Chem not listed above: 
 R. D. Adamson,  B. Austin,  J. Baker,  G. J. O. Beran,  K. Brandhorst,  
 S. T. Brown,  E. F. C. Byrd,  A. K. Chakraborty,  C.-L. Cheng,  
 Siu Hung Chien,  D. M. Chipman,  D. L. Crittenden,  H. Dachsel,  
 R. J. Doerksen,  A. D. Dutoi,  L. Fusti-Molnar,  W. A. Goddard III,  
 A. Golubeva-Zadorozhnaya,  S. R. Gwaltney,  G. Hawkins,  A. Heyden,  
 S. Hirata,  G. Kedziora,  F. J. Keil,  C. Kelley,  Jihan Kim,  R. A. King,  
 R. Z. Khaliullin,  P. P. Korambath,  W. Kurlancheek,  A. M. Lee,  M. S. Lee,  
 S. V. Levchenko,  Ching Yeh Lin,  D. Liotard,  R. C. Lochan,  I. Lotan,  
 P. E. Maslen,  N. Nair,  D. P. O'Neill,  D. Neuhauser,  E. Neuscamman,  
 C. M. Oana,  R. Olson,  B. Peters,  R. Peverati,  P. A. Pieniazek,  
 Y. M. Rhee,  J. Ritchie,  M. A. Rohrdanz,  E. Rosta,  N. J. Russ,  
 H. F. Schaefer III,  N. E. Schultz,  N. Shenvi,  A. C. Simmonett,  A. Sodt,  
 D. Stuck,  K. S. Thanthiriwatte,  V. Vanovschi,  Tao Wang,  A. Warshel,  
 C. F. Williams,  Q. Wu,  X. Xu,  W. Zhang

 Please cite Q-Chem as follows:
 Y. Shao et al., Mol. Phys. 113, 184-215 (2015)
 DOI: 10.1080/00268976.2014.952696

 Q-Chem 5.1.1 for Intel X86 EM64T Linux

 Parts of Q-Chem use Armadillo 8.300.2 (Tropical Shenanigans).
 http://arma.sourceforge.net/

 Q-Chem begins on Wed Oct 21 03:28:54 2020  

Host: n0072.mhg0
0

     Scratch files written to /local/scratch/users/yhljason/Cl-_XYGJOS_aug-cc-pcVTZ.inp20201021032846//
The previous job contains 0 fragments, simply inherited here
Input Ideriv = 2
Curr. Ideriv = -1
Max.  Ideriv = 2

Checking the input file for inconsistencies... 	...done.

--------------------------------------------------------------
User input:
--------------------------------------------------------------
$molecule
read
$end

$rem

jobtype sp
exchange XYGJOS
xc_grid 000099000590
basis aug-cc-pcVTZ
aux_basis rimp2-aug-cc-pVTZ
max_scf_cycles 200
thresh 14
scf_convergence 8
mem_total 128000
cc_memory 96000
cc_backend xm
mem_static 1500
symmetry false
sym_ignore true
scf_guess read
unrestricted false
scf_algorithm gdm
n_frozen_core 0
$end

$multipole_field
XX 0.0001
$end


--------------------------------------------------------------
 ----------------------------------------------------------------
             Standard Nuclear Orientation (Angstroms)
    I     Atom           X                Y                Z
 ----------------------------------------------------------------
    1      Cl      0.0000000000     0.0000000000     0.0000000000
 ----------------------------------------------------------------
 Nuclear Repulsion Energy =     0.0000000000 hartrees
 There are        9 alpha and        9 beta electrons
 Requested basis set is aug-cc-pCVTZ
 There are 23 shells and 75 basis functions

 Total QAlloc Memory Limit 128000 MB
 Mega-Array Size      1467 MB
 MEM_STATIC part      1500 MB
 Applying Cartesian multipole field
    Component          Value
    ---------          -----
     (2,0,0)        1.00000E-04
 Requested basis set is rimp2-aug-cc-pVTZ
 There are 37 shells and 147 basis functions
 A cutoff of  1.0D-14 yielded    276 shell pairs
 There are      2984 function pairs (      4236 Cartesian)
 
 -------------------------------------------------------
 OpenMP Integral Computing Module                       
 Release: version 1.0, May 2013, Q-Chem Inc. Pittsburgh 
 -------------------------------------------------------
 Integral Job Info:
 Integral job number is                      11
 Integral operator is                         1
 short-range coefficients                     0
 long-range coefficients              100000000
 Omega coefficients                           0
 if combine SR and LR in K                    0
 Integral screening is                        0
 Integral computing path is                   2
 max size of driver memory is            800000
 size of driver memory is                776718
 size of scratch memory is             29531563
 max col of scratch BK array              10000
 max len of scratch array in speh3          662
 max len of scratch index in speh4           32
 max int batch size is                      520
 min int batch size is                       52
 fixed nKL is                                31
 max L of basis functions is                  3
 order of int derivative is                   0
 number of shells is                         23
 number of basis is                          89
 number of cartesian basis is                89
 number of contracted shell pairs           276
 number of primitive shell pairs           2832
 maxK2 (contraction) of shell pair          169
 max number of K2 of shell pair               1
 max number of CS2 of shell pair             25
 max number of PS2 of shell pair           1014
 mem total for path MDJ                  541408
 -------------------------------------------------------
 Smallest overlap matrix eigenvalue = 2.31E-03
 Guess MOs from SCF MO coefficient file
 Reading MOs from coefficient file
 Reading MOs from coefficient file
 A restricted hybrid HF-DFT SCF calculation will be
 performed using Geometric Direct Minimization
 Exchange:     0.2000 Hartree-Fock + 0.0800 Slater + 0.7200 B88
 Correlation:  0.1900 VWN1RPA + 0.8100 LYP
 Using Euler-Maclaurin-Lebedev (99,590) quadrature formula
 SCF converges when RMS gradient is below 1.0E-08
Using Q-Chem read-in guess as SCF_GUESS READ specified.

 using 8 threads for integral computing
 -------------------------------------------------------
 OpenMP Integral computing Module                
 Release: version 2.0, May 2017, Q-Chem Inc. Pleasanton 
 -------------------------------------------------------
TIMEINFO->: J/JK contribution 3.54 sec.
 -------------------------------------------------------
 OpenMP BLAS3 based DFT computing Module                
 Release: version 1.0, May 2013, Q-Chem Inc. Pittsburgh 
 -------------------------------------------------------
 ---------------------------------------
  Cycle       Energy        RMS Gradient
 ---------------------------------------
    1    -460.3149826296      1.02E-03 Normal BFGS step
TIMEINFO->: J/JK contribution 3.90 sec.
    2    -460.3149832738      4.41E-04 Normal BFGS step
TIMEINFO->: J/JK contribution 3.62 sec.
    3    -460.3149837484      8.50E-05 Normal BFGS step
TIMEINFO->: J/JK contribution 3.79 sec.
    4    -460.3149837790      1.69E-05 Normal BFGS step
TIMEINFO->: J/JK contribution 3.76 sec.
    5    -460.3149837797      1.38E-06 Normal BFGS step
TIMEINFO->: J/JK contribution 3.64 sec.
    6    -460.3149837797      1.53E-07 Normal BFGS step
TIMEINFO->: J/JK contribution 3.81 sec.
    7    -460.3149837797      2.71E-08 Normal BFGS step
TIMEINFO->: J/JK contribution 3.72 sec.
   GDM::WARNING energy changes are now smaller than effective accuracy.
   GDM::        calculation will continue, but THRESH should be increased
   GDM::        or SCF_CONVERGENCE decreased.
   GDM::        effective_thresh =   9.000000000000000E-011
    8    -460.3149837797      1.59E-09 Convergence criterion met
 ---------------------------------------
 B3LYP orbitals are now ready for the XYGJ-OS calculation.
 XYGJ-OS energy = Exch (0.7731 HF  + 0.2269 Slater) + 
                  Corr (0.2754 LYP + 0.2309 VWN1RPA + 0.4364 OS-MP2)
 SCF time:  CPU 37.19 s  wall 4.66 s
 SCF   energy in the final basis set = -459.68142633
 Total energy in the final basis set = -459.68142633
 Entering Scaled Opposite Spin MP2
 NBasAux in rimp2.F =          147

 OS-MP2 job begins now...

 SOS scaling factor =  0.4
 Form (P|Q)**(-1/2)...
 
 Form (ia|P)...
 Form BiaQ = (ia|P)*(P|Q)**(-1/2)...
 Laplace quadrature loop begins
 Laplace point 1: correlation energy     =        -0.1899730995
 Laplace point 2: correlation energy     =        -0.1096723459
 Laplace point 3: correlation energy     =        -0.0783049465
 Laplace point 4: correlation energy     =        -0.0690185114
 Laplace point 5: correlation energy     =        -0.0262264675
 Laplace point 6: correlation energy     =        -0.0028589502
 Laplace point 7: correlation energy     =        -0.0000919907
 
 singles contribution not yet available for XYGJ-OS 
 Total OS-MP2 correlation energy         =        -0.4761463116

 Total XYGJ-OS energy                    =      -459.8892165808
 
 ------------------------------------------------------------------------------
                     SOSMP2        : Timing summary (seconds)
 ------------------------------------------------------------------------------
     job step          cpu (% of tot)      sys (% of tot)     wall (% of tot)
 ------------------------------------------------------------------------------
  Form inv (P|Q)    0.2239E+00 (10.8)   0.1000E-05 (10.0)   0.2827E-01 (10.8)
  Form (ia|P)       0.1402E+01 (67.5)   0.6000E-05 (60.0)   0.1765E+00 (67.6)
  Form  BiaQ        0.4702E-01 ( 2.3)   0.0000E+00 ( 0.0)   0.5878E-02 ( 2.3)
  LP orbitals       0.8658E-01 ( 4.2)   0.1000E-05 (10.0)   0.1083E-01 ( 4.1)
  Form  X(PQ)       0.2131E+00 (10.3)   0.2000E-05 (20.0)   0.2667E-01 (10.2)
  Increment EMP2    0.5987E-01 ( 2.9)   0.0000E+00 ( 0.0)   0.7491E-02 ( 2.9)
 ------------------------------------------------------------------------------
   Grand Totals     0.2077E+01          0.1000E-04          0.2612E+00
 ------------------------------------------------------------------------------
 
 --------------------------------------------------------------
 
                    Orbital Energies (a.u.)
 --------------------------------------------------------------
 
 Alpha MOs
 -- Occupied --
*******  -9.136  -6.891  -6.891  -6.891  -0.482  -0.030  -0.029
 -0.029
 -- Virtual --
  0.224   0.226   0.226   0.239   0.461   0.462   0.462   0.462
  0.462   0.720   0.720   0.720   0.884   0.952   0.952   0.952
  0.952   0.952   1.257   1.257   1.257   1.258   1.258   1.258
  1.258   2.307   2.308   2.308   2.308   2.308   2.565   2.566
  2.566   3.016   3.016   3.016   3.016   3.016   3.016   3.016
  3.347   9.997   9.997   9.997   9.997   9.997  12.181  12.181
 12.181  17.386  36.039  36.039  36.039  36.039  36.039  36.039
 36.039  45.442  45.442  45.442  45.442  45.442  53.670  53.670
 53.670 101.102
 --------------------------------------------------------------
 
          Ground-State Mulliken Net Atomic Charges

     Atom                 Charge (a.u.)
  ----------------------------------------
      1 Cl                   -1.000000
  ----------------------------------------
  Sum of atomic charges =    -1.000000

 -----------------------------------------------------------------
                    Cartesian Multipole Moments
 -----------------------------------------------------------------
    Charge (ESU x 10^10)
                -4.8032
    Dipole Moment (Debye)
         X      -0.0000      Y       0.0000      Z      -0.0000
       Tot       0.0000
    Quadrupole Moments (Debye-Ang)
        XX     -17.8113     XY       0.0000     YY     -17.7912
        XZ       0.0000     YZ       0.0000     ZZ     -17.7912
    Octopole Moments (Debye-Ang^2)
       XXX      -0.0000    XXY       0.0000    XYY      -0.0000
       YYY       0.0000    XXZ      -0.0000    XYZ       0.0000
       YYZ      -0.0000    XZZ      -0.0000    YZZ       0.0000
       ZZZ      -0.0000
    Hexadecapole Moments (Debye-Ang^3)
      XXXX     -34.2782   XXXY       0.0000   XXYY     -11.3996
      XYYY       0.0000   YYYY     -34.1192   XXXZ       0.0000
      XXYZ       0.0000   XYYZ       0.0000   YYYZ       0.0000
      XXZZ     -11.3996   XYZZ       0.0000   YYZZ     -11.3731
      XZZZ       0.0000   YZZZ       0.0000   ZZZZ     -34.1192
 -----------------------------------------------------------------

 STANDARD THERMODYNAMIC QUANTITIES AT   298.15 K  AND     1.00 ATM

   Translational Enthalpy:        0.889 kcal/mol
   Rotational Enthalpy:           0.000 kcal/mol
   Vibrational Enthalpy:          0.000 kcal/mol
   gas constant (RT):             0.592 kcal/mol
   Translational Entropy:        36.586  cal/mol.K
   Rotational Entropy:            0.000  cal/mol.K
   Vibrational Entropy:           0.000  cal/mol.K

   Total Enthalpy:                1.481 kcal/mol
   Total Entropy:                36.586  cal/mol.K

 -----------------------------------------------------------------

Archival summary:
1\1\n0072.mhg0\SP\ProcedureUnspecified\BasisUnspecified\l1(1-,1)\yhljason\WedOct2103:29:002020WedOct2103:29:002020\0\\#,ProcedureUnspecified,BasisUnspecified,\\-1,1\Cl\\\@

 Total job time:  5.51s(wall), 43.55s(cpu) 
 Wed Oct 21 03:29:00 2020

        *************************************************************
        *                                                           *
        *  Thank you very much for using Q-Chem.  Have a nice day.  *
        *                                                           *
        *************************************************************


 
User input: 3 of 7 
 
Q-Chem Developer Version!
                  Welcome to Q-Chem
     A Quantum Leap Into The Future Of Chemistry


 Q-Chem 5.1, Q-Chem, Inc., Pleasanton, CA (2018)

 Yihan Shao,  Zhengting Gan,  E. Epifanovsky,  A. T. B. Gilbert,  M. Wormit,  
 J. Kussmann,  A. W. Lange,  A. Behn,  Jia Deng,  Xintian Feng,  D. Ghosh,  
 M. Goldey,  P. R. Horn,  L. D. Jacobson,  I. Kaliman,  T. Kus,  A. Landau,  
 Jie Liu,  E. I. Proynov,  R. M. Richard,  R. P. Steele,  E. J. Sundstrom,  
 H. L. Woodcock III,  P. M. Zimmerman,  D. Zuev,  B. Albrecht,  E. Alguire,  
 S. A. Baeppler,  D. Barton,  Z. Benda,  Y. A. Bernard,  E. J. Berquist,  
 K. B. Bravaya,  H. Burton,  D. Casanova,  Chun-Min Chang,  Yunqing Chen,  
 A. Chien,  K. D. Closser,  M. P. Coons,  S. Coriani,  S. Dasgupta,  
 A. L. Dempwolff,  M. Diedenhofen,  Hainam Do,  R. G. Edgar,  Po-Tung Fang,  
 S. Faraji,  S. Fatehi,  Qingguo Feng,  K. D. Fenk,  J. Fosso-Tande,  
 Qinghui Ge,  A. Ghysels,  G. Gidofalvi,  J. Gomes,  J. Gonthier,  A. Gunina,  
 D. Hait,  M. W. D. Hanson-Heine,  P. H. P. Harbach,  A. W. Hauser,  
 J. E. Herr,  E. G. Hohenstein,  Z. C. Holden,  Kerwin Hui,  B. C. Huynh,  
 T.-C. Jagau,  Hyunjun Ji,  B. Kaduk,  K. Khistyaev,  Jaehoon Kim,  
 P. Klunzinger,  K. Koh,  D. Kosenkov,  L. Koulias,  T. Kowalczyk,  
 C. M. Krauter,  A. Kunitsa,  Ka Un Lao,  A. Laurent,  K. V. Lawler,  
 Joonho Lee,  D. Lefrancois,  S. Lehtola,  D. S. Levine,  Yi-Pei Li,  
 You-Sheng Lin,  Fenglai Liu,  E. Livshits,  A. Luenser,  P. Manohar,  
 E. Mansoor,  S. F. Manzer,  Shan-Ping Mao,  Yuezhi Mao,  N. Mardirossian,  
 A. V. Marenich,  T. Markovich,  L. A. Martinez-Martinez,  S. A. Maurer,  
 N. J. Mayhall,  S. C. McKenzie,  J.-M. Mewes,  A. F. Morrison,  
 J. W. Mullinax,  K. Nanda,  T. S. Nguyen-Beck,  R. Olivares-Amaya,  
 J. A. Parkhill,  T. M. Perrine,  F. Plasser,  P. Pokhilko,  S. Prager,  
 A. Prociuk,  E. Ramos,  D. R. Rehn,  F. Rob,  M. Schneider,  N. Sergueev,  
 S. M. Sharada,  S. Sharma,  D. W. Small,  T. Stauch,  T. Stein,  
 Yu-Chuan Su,  A. J. W. Thom,  A. Tkatchenko,  T. Tsuchimochi,  N. M. Tubman,  
 L. Vogt,  M. L. Vidal,  O. Vydrov,  M. A. Watson,  J. Wenzel,  
 M. de Wergifosse,  T. A. Wesolowski,  A. White,  J. Witte,  A. Yamada,  
 Jun Yang,  K. Yao,  S. Yeganeh,  S. R. Yost,  Zhi-Qiang You,  A. Zech,  
 Igor Ying Zhang,  Xing Zhang,  Yan Zhao,  Ying Zhu,  B. R. Brooks,  
 G. K. L. Chan,  C. J. Cramer,  M. S. Gordon,  W. J. Hehre,  A. Klamt,  
 M. W. Schmidt,  C. D. Sherrill,  D. G. Truhlar,  A. Aspuru-Guzik,  R. Baer,  
 A. T. Bell,  N. A. Besley,  Jeng-Da Chai,  A. E. DePrince, III,  
 R. A. DiStasio Jr.,  A. Dreuw,  B. D. Dunietz,  T. R. Furlani,  
 Chao-Ping Hsu,  Yousung Jung,  Jing Kong,  D. S. Lambrecht,  WanZhen Liang,  
 C. Ochsenfeld,  V. A. Rassolov,  L. V. Slipchenko,  J. E. Subotnik,  
 T. Van Voorhis,  J. M. Herbert,  A. I. Krylov,  P. M. W. Gill,  M. Head-Gordon

 Contributors to earlier versions of Q-Chem not listed above: 
 R. D. Adamson,  B. Austin,  J. Baker,  G. J. O. Beran,  K. Brandhorst,  
 S. T. Brown,  E. F. C. Byrd,  A. K. Chakraborty,  C.-L. Cheng,  
 Siu Hung Chien,  D. M. Chipman,  D. L. Crittenden,  H. Dachsel,  
 R. J. Doerksen,  A. D. Dutoi,  L. Fusti-Molnar,  W. A. Goddard III,  
 A. Golubeva-Zadorozhnaya,  S. R. Gwaltney,  G. Hawkins,  A. Heyden,  
 S. Hirata,  G. Kedziora,  F. J. Keil,  C. Kelley,  Jihan Kim,  R. A. King,  
 R. Z. Khaliullin,  P. P. Korambath,  W. Kurlancheek,  A. M. Lee,  M. S. Lee,  
 S. V. Levchenko,  Ching Yeh Lin,  D. Liotard,  R. C. Lochan,  I. Lotan,  
 P. E. Maslen,  N. Nair,  D. P. O'Neill,  D. Neuhauser,  E. Neuscamman,  
 C. M. Oana,  R. Olson,  B. Peters,  R. Peverati,  P. A. Pieniazek,  
 Y. M. Rhee,  J. Ritchie,  M. A. Rohrdanz,  E. Rosta,  N. J. Russ,  
 H. F. Schaefer III,  N. E. Schultz,  N. Shenvi,  A. C. Simmonett,  A. Sodt,  
 D. Stuck,  K. S. Thanthiriwatte,  V. Vanovschi,  Tao Wang,  A. Warshel,  
 C. F. Williams,  Q. Wu,  X. Xu,  W. Zhang

 Please cite Q-Chem as follows:
 Y. Shao et al., Mol. Phys. 113, 184-215 (2015)
 DOI: 10.1080/00268976.2014.952696

 Q-Chem 5.1.1 for Intel X86 EM64T Linux

 Parts of Q-Chem use Armadillo 8.300.2 (Tropical Shenanigans).
 http://arma.sourceforge.net/

 Q-Chem begins on Wed Oct 21 03:29:00 2020  

Host: n0072.mhg0
0

     Scratch files written to /local/scratch/users/yhljason/Cl-_XYGJOS_aug-cc-pcVTZ.inp20201021032846//
The previous job contains 0 fragments, simply inherited here
Input Ideriv = 2
Curr. Ideriv = -1
Max.  Ideriv = 2

Checking the input file for inconsistencies... 	...done.

--------------------------------------------------------------
User input:
--------------------------------------------------------------
$molecule
read
$end

$rem

jobtype sp
exchange XYGJOS
xc_grid 000099000590
basis aug-cc-pcVTZ
aux_basis rimp2-aug-cc-pVTZ
max_scf_cycles 200
thresh 14
scf_convergence 8
mem_total 128000
cc_memory 96000
cc_backend xm
mem_static 1500
symmetry false
sym_ignore true
scf_guess read
unrestricted false
scf_algorithm gdm
n_frozen_core 0
$end

$multipole_field
XX -0.0001
$end


--------------------------------------------------------------
 ----------------------------------------------------------------
             Standard Nuclear Orientation (Angstroms)
    I     Atom           X                Y                Z
 ----------------------------------------------------------------
    1      Cl      0.0000000000     0.0000000000     0.0000000000
 ----------------------------------------------------------------
 Nuclear Repulsion Energy =     0.0000000000 hartrees
 There are        9 alpha and        9 beta electrons
 Requested basis set is aug-cc-pCVTZ
 There are 23 shells and 75 basis functions

 Total QAlloc Memory Limit 128000 MB
 Mega-Array Size      1467 MB
 MEM_STATIC part      1500 MB
 Applying Cartesian multipole field
    Component          Value
    ---------          -----
     (2,0,0)       -1.00000E-04
 Requested basis set is rimp2-aug-cc-pVTZ
 There are 37 shells and 147 basis functions
 A cutoff of  1.0D-14 yielded    276 shell pairs
 There are      2984 function pairs (      4236 Cartesian)
 
 -------------------------------------------------------
 OpenMP Integral Computing Module                       
 Release: version 1.0, May 2013, Q-Chem Inc. Pittsburgh 
 -------------------------------------------------------
 Integral Job Info:
 Integral job number is                      11
 Integral operator is                         1
 short-range coefficients                     0
 long-range coefficients              100000000
 Omega coefficients                           0
 if combine SR and LR in K                    0
 Integral screening is                        0
 Integral computing path is                   2
 max size of driver memory is            800000
 size of driver memory is                776718
 size of scratch memory is             29531563
 max col of scratch BK array              10000
 max len of scratch array in speh3          662
 max len of scratch index in speh4           32
 max int batch size is                      520
 min int batch size is                       52
 fixed nKL is                                31
 max L of basis functions is                  3
 order of int derivative is                   0
 number of shells is                         23
 number of basis is                          89
 number of cartesian basis is                89
 number of contracted shell pairs           276
 number of primitive shell pairs           2832
 maxK2 (contraction) of shell pair          169
 max number of K2 of shell pair               1
 max number of CS2 of shell pair             25
 max number of PS2 of shell pair           1014
 mem total for path MDJ                  541408
 -------------------------------------------------------
 Smallest overlap matrix eigenvalue = 2.31E-03
 Guess MOs from SCF MO coefficient file
 Reading MOs from coefficient file
 Reading MOs from coefficient file
 A restricted hybrid HF-DFT SCF calculation will be
 performed using Geometric Direct Minimization
 Exchange:     0.2000 Hartree-Fock + 0.0800 Slater + 0.7200 B88
 Correlation:  0.1900 VWN1RPA + 0.8100 LYP
 Using Euler-Maclaurin-Lebedev (99,590) quadrature formula
 SCF converges when RMS gradient is below 1.0E-08
Using Q-Chem read-in guess as SCF_GUESS READ specified.

 using 8 threads for integral computing
 -------------------------------------------------------
 OpenMP Integral computing Module                
 Release: version 2.0, May 2017, Q-Chem Inc. Pleasanton 
 -------------------------------------------------------
TIMEINFO->: J/JK contribution 3.94 sec.
 -------------------------------------------------------
 OpenMP BLAS3 based DFT computing Module                
 Release: version 1.0, May 2013, Q-Chem Inc. Pittsburgh 
 -------------------------------------------------------
 ---------------------------------------
  Cycle       Energy        RMS Gradient
 ---------------------------------------
    1    -460.3123353273      2.04E-03 Normal BFGS step
TIMEINFO->: J/JK contribution 3.79 sec.
    2    -460.3123379355      8.20E-04 Normal BFGS step
TIMEINFO->: J/JK contribution 3.84 sec.
    3    -460.3123397992      1.68E-04 Normal BFGS step
TIMEINFO->: J/JK contribution 3.73 sec.
    4    -460.3123399250      3.34E-05 Normal BFGS step
TIMEINFO->: J/JK contribution 3.80 sec.
    5    -460.3123399280      2.69E-06 Normal BFGS step
TIMEINFO->: J/JK contribution 3.82 sec.
    6    -460.3123399280      3.13E-07 Normal BFGS step
TIMEINFO->: J/JK contribution 3.68 sec.
    7    -460.3123399280      5.36E-08 Normal BFGS step
TIMEINFO->: J/JK contribution 3.87 sec.
    8    -460.3123399280      3.26E-09 Convergence criterion met
 ---------------------------------------
 B3LYP orbitals are now ready for the XYGJ-OS calculation.
 XYGJ-OS energy = Exch (0.7731 HF  + 0.2269 Slater) + 
                  Corr (0.2754 LYP + 0.2309 VWN1RPA + 0.4364 OS-MP2)
 SCF time:  CPU 37.83 s  wall 4.75 s
 SCF   energy in the final basis set = -459.67887580
 Total energy in the final basis set = -459.67887580
 Entering Scaled Opposite Spin MP2
 NBasAux in rimp2.F =          147

 OS-MP2 job begins now...

 SOS scaling factor =  0.4
 Form (P|Q)**(-1/2)...
 
 Form (ia|P)...
 Form BiaQ = (ia|P)*(P|Q)**(-1/2)...
 Laplace quadrature loop begins
 Laplace point 1: correlation energy     =        -0.1899793268
 Laplace point 2: correlation energy     =        -0.1096817623
 Laplace point 3: correlation energy     =        -0.0783075886
 Laplace point 4: correlation energy     =        -0.0689822252
 Laplace point 5: correlation energy     =        -0.0261607831
 Laplace point 6: correlation energy     =        -0.0028239497
 Laplace point 7: correlation energy     =        -0.0000881680
 
 singles contribution not yet available for XYGJ-OS 
 Total OS-MP2 correlation energy         =        -0.4760238039

 Total XYGJ-OS energy                    =      -459.8866125904
 
 ------------------------------------------------------------------------------
                     SOSMP2        : Timing summary (seconds)
 ------------------------------------------------------------------------------
     job step          cpu (% of tot)      sys (% of tot)     wall (% of tot)
 ------------------------------------------------------------------------------
  Form inv (P|Q)    0.2416E+00 (11.4)   0.1000E-05 ( 7.1)   0.3061E-01 (11.4)
  Form (ia|P)       0.1430E+01 (67.3)   0.9000E-05 (64.3)   0.1806E+00 (67.4)
  Form  BiaQ        0.5008E-01 ( 2.4)   0.1000E-05 ( 7.1)   0.6270E-02 ( 2.3)
  LP orbitals       0.8649E-01 ( 4.1)   0.1000E-05 ( 7.1)   0.1082E-01 ( 4.0)
  Form  X(PQ)       0.2111E+00 ( 9.9)   0.2000E-05 (14.3)   0.2639E-01 ( 9.8)
  Increment EMP2    0.6155E-01 ( 2.9)   0.0000E+00 ( 0.0)   0.7694E-02 ( 2.9)
 ------------------------------------------------------------------------------
   Grand Totals     0.2125E+01          0.1400E-04          0.2679E+00
 ------------------------------------------------------------------------------
 
 --------------------------------------------------------------
 
                    Orbital Energies (a.u.)
 --------------------------------------------------------------
 
 Alpha MOs
 -- Occupied --
*******  -9.134  -6.890  -6.890  -6.890  -0.481  -0.028  -0.028
 -0.028
 -- Virtual --
  0.228   0.228   0.229   0.241   0.463   0.463   0.463   0.463
  0.463   0.721   0.721   0.722   0.885   0.953   0.953   0.953
  0.953   0.954   1.258   1.258   1.259   1.259   1.259   1.259
  1.259   2.309   2.309   2.309   2.309   2.309   2.567   2.567
  2.567   3.017   3.017   3.017   3.017   3.017   3.017   3.017
  3.349   9.998   9.998   9.998   9.998   9.998  12.182  12.182
 12.183  17.388  36.041  36.041  36.041  36.041  36.041  36.041
 36.041  45.443  45.443  45.443  45.443  45.443  53.671  53.671
 53.671 101.103
 --------------------------------------------------------------
 
          Ground-State Mulliken Net Atomic Charges

     Atom                 Charge (a.u.)
  ----------------------------------------
      1 Cl                   -1.000000
  ----------------------------------------
  Sum of atomic charges =    -1.000000

 -----------------------------------------------------------------
                    Cartesian Multipole Moments
 -----------------------------------------------------------------
    Charge (ESU x 10^10)
                -4.8032
    Dipole Moment (Debye)
         X       0.0000      Y      -0.0000      Z       0.0000
       Tot       0.0000
    Quadrupole Moments (Debye-Ang)
        XX     -17.7497     XY       0.0000     YY     -17.7694
        XZ      -0.0000     YZ      -0.0000     ZZ     -17.7694
    Octopole Moments (Debye-Ang^2)
       XXX      -0.0000    XXY      -0.0000    XYY      -0.0000
       YYY      -0.0000    XXZ       0.0000    XYZ       0.0000
       YYZ       0.0000    XZZ      -0.0000    YZZ      -0.0000
       ZZZ       0.0000
    Hexadecapole Moments (Debye-Ang^3)
      XXXX     -33.8106   XXXY       0.0000   XXYY     -11.2960
      XYYY       0.0000   YYYY     -33.9654   XXXZ      -0.0000
      XXYZ      -0.0000   XYYZ      -0.0000   YYYZ      -0.0000
      XXZZ     -11.2960   XYZZ       0.0000   YYZZ     -11.3218
      XZZZ      -0.0000   YZZZ      -0.0000   ZZZZ     -33.9654
 -----------------------------------------------------------------

 STANDARD THERMODYNAMIC QUANTITIES AT   298.15 K  AND     1.00 ATM

   Translational Enthalpy:        0.889 kcal/mol
   Rotational Enthalpy:           0.000 kcal/mol
   Vibrational Enthalpy:          0.000 kcal/mol
   gas constant (RT):             0.592 kcal/mol
   Translational Entropy:        36.586  cal/mol.K
   Rotational Entropy:            0.000  cal/mol.K
   Vibrational Entropy:           0.000  cal/mol.K

   Total Enthalpy:                1.481 kcal/mol
   Total Entropy:                36.586  cal/mol.K

 -----------------------------------------------------------------

Archival summary:
1\1\n0072.mhg0\SP\ProcedureUnspecified\BasisUnspecified\l1(1-,1)\yhljason\WedOct2103:29:062020WedOct2103:29:062020\0\\#,ProcedureUnspecified,BasisUnspecified,\\-1,1\Cl\\\@

 Total job time:  5.62s(wall), 44.42s(cpu) 
 Wed Oct 21 03:29:06 2020

        *************************************************************
        *                                                           *
        *  Thank you very much for using Q-Chem.  Have a nice day.  *
        *                                                           *
        *************************************************************


 
User input: 4 of 7 
 
Q-Chem Developer Version!
                  Welcome to Q-Chem
     A Quantum Leap Into The Future Of Chemistry


 Q-Chem 5.1, Q-Chem, Inc., Pleasanton, CA (2018)

 Yihan Shao,  Zhengting Gan,  E. Epifanovsky,  A. T. B. Gilbert,  M. Wormit,  
 J. Kussmann,  A. W. Lange,  A. Behn,  Jia Deng,  Xintian Feng,  D. Ghosh,  
 M. Goldey,  P. R. Horn,  L. D. Jacobson,  I. Kaliman,  T. Kus,  A. Landau,  
 Jie Liu,  E. I. Proynov,  R. M. Richard,  R. P. Steele,  E. J. Sundstrom,  
 H. L. Woodcock III,  P. M. Zimmerman,  D. Zuev,  B. Albrecht,  E. Alguire,  
 S. A. Baeppler,  D. Barton,  Z. Benda,  Y. A. Bernard,  E. J. Berquist,  
 K. B. Bravaya,  H. Burton,  D. Casanova,  Chun-Min Chang,  Yunqing Chen,  
 A. Chien,  K. D. Closser,  M. P. Coons,  S. Coriani,  S. Dasgupta,  
 A. L. Dempwolff,  M. Diedenhofen,  Hainam Do,  R. G. Edgar,  Po-Tung Fang,  
 S. Faraji,  S. Fatehi,  Qingguo Feng,  K. D. Fenk,  J. Fosso-Tande,  
 Qinghui Ge,  A. Ghysels,  G. Gidofalvi,  J. Gomes,  J. Gonthier,  A. Gunina,  
 D. Hait,  M. W. D. Hanson-Heine,  P. H. P. Harbach,  A. W. Hauser,  
 J. E. Herr,  E. G. Hohenstein,  Z. C. Holden,  Kerwin Hui,  B. C. Huynh,  
 T.-C. Jagau,  Hyunjun Ji,  B. Kaduk,  K. Khistyaev,  Jaehoon Kim,  
 P. Klunzinger,  K. Koh,  D. Kosenkov,  L. Koulias,  T. Kowalczyk,  
 C. M. Krauter,  A. Kunitsa,  Ka Un Lao,  A. Laurent,  K. V. Lawler,  
 Joonho Lee,  D. Lefrancois,  S. Lehtola,  D. S. Levine,  Yi-Pei Li,  
 You-Sheng Lin,  Fenglai Liu,  E. Livshits,  A. Luenser,  P. Manohar,  
 E. Mansoor,  S. F. Manzer,  Shan-Ping Mao,  Yuezhi Mao,  N. Mardirossian,  
 A. V. Marenich,  T. Markovich,  L. A. Martinez-Martinez,  S. A. Maurer,  
 N. J. Mayhall,  S. C. McKenzie,  J.-M. Mewes,  A. F. Morrison,  
 J. W. Mullinax,  K. Nanda,  T. S. Nguyen-Beck,  R. Olivares-Amaya,  
 J. A. Parkhill,  T. M. Perrine,  F. Plasser,  P. Pokhilko,  S. Prager,  
 A. Prociuk,  E. Ramos,  D. R. Rehn,  F. Rob,  M. Schneider,  N. Sergueev,  
 S. M. Sharada,  S. Sharma,  D. W. Small,  T. Stauch,  T. Stein,  
 Yu-Chuan Su,  A. J. W. Thom,  A. Tkatchenko,  T. Tsuchimochi,  N. M. Tubman,  
 L. Vogt,  M. L. Vidal,  O. Vydrov,  M. A. Watson,  J. Wenzel,  
 M. de Wergifosse,  T. A. Wesolowski,  A. White,  J. Witte,  A. Yamada,  
 Jun Yang,  K. Yao,  S. Yeganeh,  S. R. Yost,  Zhi-Qiang You,  A. Zech,  
 Igor Ying Zhang,  Xing Zhang,  Yan Zhao,  Ying Zhu,  B. R. Brooks,  
 G. K. L. Chan,  C. J. Cramer,  M. S. Gordon,  W. J. Hehre,  A. Klamt,  
 M. W. Schmidt,  C. D. Sherrill,  D. G. Truhlar,  A. Aspuru-Guzik,  R. Baer,  
 A. T. Bell,  N. A. Besley,  Jeng-Da Chai,  A. E. DePrince, III,  
 R. A. DiStasio Jr.,  A. Dreuw,  B. D. Dunietz,  T. R. Furlani,  
 Chao-Ping Hsu,  Yousung Jung,  Jing Kong,  D. S. Lambrecht,  WanZhen Liang,  
 C. Ochsenfeld,  V. A. Rassolov,  L. V. Slipchenko,  J. E. Subotnik,  
 T. Van Voorhis,  J. M. Herbert,  A. I. Krylov,  P. M. W. Gill,  M. Head-Gordon

 Contributors to earlier versions of Q-Chem not listed above: 
 R. D. Adamson,  B. Austin,  J. Baker,  G. J. O. Beran,  K. Brandhorst,  
 S. T. Brown,  E. F. C. Byrd,  A. K. Chakraborty,  C.-L. Cheng,  
 Siu Hung Chien,  D. M. Chipman,  D. L. Crittenden,  H. Dachsel,  
 R. J. Doerksen,  A. D. Dutoi,  L. Fusti-Molnar,  W. A. Goddard III,  
 A. Golubeva-Zadorozhnaya,  S. R. Gwaltney,  G. Hawkins,  A. Heyden,  
 S. Hirata,  G. Kedziora,  F. J. Keil,  C. Kelley,  Jihan Kim,  R. A. King,  
 R. Z. Khaliullin,  P. P. Korambath,  W. Kurlancheek,  A. M. Lee,  M. S. Lee,  
 S. V. Levchenko,  Ching Yeh Lin,  D. Liotard,  R. C. Lochan,  I. Lotan,  
 P. E. Maslen,  N. Nair,  D. P. O'Neill,  D. Neuhauser,  E. Neuscamman,  
 C. M. Oana,  R. Olson,  B. Peters,  R. Peverati,  P. A. Pieniazek,  
 Y. M. Rhee,  J. Ritchie,  M. A. Rohrdanz,  E. Rosta,  N. J. Russ,  
 H. F. Schaefer III,  N. E. Schultz,  N. Shenvi,  A. C. Simmonett,  A. Sodt,  
 D. Stuck,  K. S. Thanthiriwatte,  V. Vanovschi,  Tao Wang,  A. Warshel,  
 C. F. Williams,  Q. Wu,  X. Xu,  W. Zhang

 Please cite Q-Chem as follows:
 Y. Shao et al., Mol. Phys. 113, 184-215 (2015)
 DOI: 10.1080/00268976.2014.952696

 Q-Chem 5.1.1 for Intel X86 EM64T Linux

 Parts of Q-Chem use Armadillo 8.300.2 (Tropical Shenanigans).
 http://arma.sourceforge.net/

 Q-Chem begins on Wed Oct 21 03:29:06 2020  

Host: n0072.mhg0
0

     Scratch files written to /local/scratch/users/yhljason/Cl-_XYGJOS_aug-cc-pcVTZ.inp20201021032846//
The previous job contains 0 fragments, simply inherited here
Input Ideriv = 2
Curr. Ideriv = -1
Max.  Ideriv = 2

Checking the input file for inconsistencies... 	...done.

--------------------------------------------------------------
User input:
--------------------------------------------------------------
$molecule
read
$end

$rem

jobtype sp
exchange XYGJOS
xc_grid 000099000590
basis aug-cc-pcVTZ
aux_basis rimp2-aug-cc-pVTZ
max_scf_cycles 200
thresh 14
scf_convergence 8
mem_total 128000
cc_memory 96000
cc_backend xm
mem_static 1500
symmetry false
sym_ignore true
scf_guess read
unrestricted false
scf_algorithm gdm
n_frozen_core 0
$end

$multipole_field
YY 0.0001
$end


--------------------------------------------------------------
 ----------------------------------------------------------------
             Standard Nuclear Orientation (Angstroms)
    I     Atom           X                Y                Z
 ----------------------------------------------------------------
    1      Cl      0.0000000000     0.0000000000     0.0000000000
 ----------------------------------------------------------------
 Nuclear Repulsion Energy =     0.0000000000 hartrees
 There are        9 alpha and        9 beta electrons
 Requested basis set is aug-cc-pCVTZ
 There are 23 shells and 75 basis functions

 Total QAlloc Memory Limit 128000 MB
 Mega-Array Size      1467 MB
 MEM_STATIC part      1500 MB
 Applying Cartesian multipole field
    Component          Value
    ---------          -----
     (0,2,0)        1.00000E-04
 Requested basis set is rimp2-aug-cc-pVTZ
 There are 37 shells and 147 basis functions
 A cutoff of  1.0D-14 yielded    276 shell pairs
 There are      2984 function pairs (      4236 Cartesian)
 
 -------------------------------------------------------
 OpenMP Integral Computing Module                       
 Release: version 1.0, May 2013, Q-Chem Inc. Pittsburgh 
 -------------------------------------------------------
 Integral Job Info:
 Integral job number is                      11
 Integral operator is                         1
 short-range coefficients                     0
 long-range coefficients              100000000
 Omega coefficients                           0
 if combine SR and LR in K                    0
 Integral screening is                        0
 Integral computing path is                   2
 max size of driver memory is            800000
 size of driver memory is                776718
 size of scratch memory is             29531563
 max col of scratch BK array              10000
 max len of scratch array in speh3          662
 max len of scratch index in speh4           32
 max int batch size is                      520
 min int batch size is                       52
 fixed nKL is                                31
 max L of basis functions is                  3
 order of int derivative is                   0
 number of shells is                         23
 number of basis is                          89
 number of cartesian basis is                89
 number of contracted shell pairs           276
 number of primitive shell pairs           2832
 maxK2 (contraction) of shell pair          169
 max number of K2 of shell pair               1
 max number of CS2 of shell pair             25
 max number of PS2 of shell pair           1014
 mem total for path MDJ                  541408
 -------------------------------------------------------
 Smallest overlap matrix eigenvalue = 2.31E-03
 Guess MOs from SCF MO coefficient file
 Reading MOs from coefficient file
 Reading MOs from coefficient file
 A restricted hybrid HF-DFT SCF calculation will be
 performed using Geometric Direct Minimization
 Exchange:     0.2000 Hartree-Fock + 0.0800 Slater + 0.7200 B88
 Correlation:  0.1900 VWN1RPA + 0.8100 LYP
 Using Euler-Maclaurin-Lebedev (99,590) quadrature formula
 SCF converges when RMS gradient is below 1.0E-08
Using Q-Chem read-in guess as SCF_GUESS READ specified.

 using 8 threads for integral computing
 -------------------------------------------------------
 OpenMP Integral computing Module                
 Release: version 2.0, May 2017, Q-Chem Inc. Pleasanton 
 -------------------------------------------------------
TIMEINFO->: J/JK contribution 3.98 sec.
 -------------------------------------------------------
 OpenMP BLAS3 based DFT computing Module                
 Release: version 1.0, May 2013, Q-Chem Inc. Pittsburgh 
 -------------------------------------------------------
 ---------------------------------------
  Cycle       Energy        RMS Gradient
 ---------------------------------------
    1    -460.3149806915      1.36E-03 Normal BFGS step
TIMEINFO->: J/JK contribution 3.71 sec.
    2    -460.3149818081      8.80E-04 Normal BFGS step
TIMEINFO->: J/JK contribution 3.73 sec.
    3    -460.3149837354      8.92E-05 Normal BFGS step
TIMEINFO->: J/JK contribution 3.70 sec.
    4    -460.3149837776      2.04E-05 Normal BFGS step
TIMEINFO->: J/JK contribution 3.41 sec.
    5    -460.3149837797      1.68E-06 Normal BFGS step
TIMEINFO->: J/JK contribution 3.41 sec.
    6    -460.3149837797      2.01E-07 Normal BFGS step
TIMEINFO->: J/JK contribution 3.38 sec.
   GDM::WARNING energy changes are now smaller than effective accuracy.
   GDM::        calculation will continue, but THRESH should be increased
   GDM::        or SCF_CONVERGENCE decreased.
   GDM::        effective_thresh =   9.000000000000000E-011
    7    -460.3149837797      2.05E-08 Normal BFGS step
TIMEINFO->: J/JK contribution 3.48 sec.
   GDM::WARNING energy changes are now smaller than effective accuracy.
   GDM::        calculation will continue, but THRESH should be increased
   GDM::        or SCF_CONVERGENCE decreased.
   GDM::        effective_thresh =   9.000000000000000E-011
    8    -460.3149837797      3.85E-09 Convergence criterion met
 ---------------------------------------
 B3LYP orbitals are now ready for the XYGJ-OS calculation.
 XYGJ-OS energy = Exch (0.7731 HF  + 0.2269 Slater) + 
                  Corr (0.2754 LYP + 0.2309 VWN1RPA + 0.4364 OS-MP2)
 SCF time:  CPU 35.97 s  wall 4.51 s
 SCF   energy in the final basis set = -459.68142633
 Total energy in the final basis set = -459.68142633
 Entering Scaled Opposite Spin MP2
 NBasAux in rimp2.F =          147

 OS-MP2 job begins now...

 SOS scaling factor =  0.4
 Form (P|Q)**(-1/2)...
 
 Form (ia|P)...
 Form BiaQ = (ia|P)*(P|Q)**(-1/2)...
 Laplace quadrature loop begins
 Laplace point 1: correlation energy     =        -0.1899730995
 Laplace point 2: correlation energy     =        -0.1096723459
 Laplace point 3: correlation energy     =        -0.0783049465
 Laplace point 4: correlation energy     =        -0.0690185114
 Laplace point 5: correlation energy     =        -0.0262264675
 Laplace point 6: correlation energy     =        -0.0028589502
 Laplace point 7: correlation energy     =        -0.0000919907
 
 singles contribution not yet available for XYGJ-OS 
 Total OS-MP2 correlation energy         =        -0.4761463116

 Total XYGJ-OS energy                    =      -459.8892165810
 
 ------------------------------------------------------------------------------
                     SOSMP2        : Timing summary (seconds)
 ------------------------------------------------------------------------------
     job step          cpu (% of tot)      sys (% of tot)     wall (% of tot)
 ------------------------------------------------------------------------------
  Form inv (P|Q)    0.2263E+00 (10.8)   0.2000E-05 (15.4)   0.2853E-01 (10.8)
  Form (ia|P)       0.1407E+01 (67.2)   0.8000E-05 (61.5)   0.1770E+00 (67.2)
  Form  BiaQ        0.4965E-01 ( 2.4)   0.0000E+00 ( 0.0)   0.6208E-02 ( 2.4)
  LP orbitals       0.8921E-01 ( 4.3)   0.2000E-05 (15.4)   0.1115E-01 ( 4.2)
  Form  X(PQ)       0.2124E+00 (10.1)   0.1000E-05 ( 7.7)   0.2659E-01 (10.1)
  Increment EMP2    0.6266E-01 ( 3.0)   0.0000E+00 ( 0.0)   0.7839E-02 ( 3.0)
 ------------------------------------------------------------------------------
   Grand Totals     0.2095E+01          0.1300E-04          0.2633E+00
 ------------------------------------------------------------------------------
 
 --------------------------------------------------------------
 
                    Orbital Energies (a.u.)
 --------------------------------------------------------------
 
 Alpha MOs
 -- Occupied --
*******  -9.136  -6.891  -6.891  -6.891  -0.482  -0.030  -0.029
 -0.029
 -- Virtual --
  0.224   0.226   0.226   0.239   0.461   0.462   0.462   0.462
  0.462   0.720   0.720   0.720   0.884   0.952   0.952   0.952
  0.952   0.952   1.257   1.257   1.257   1.258   1.258   1.258
  1.258   2.307   2.308   2.308   2.308   2.308   2.565   2.566
  2.566   3.016   3.016   3.016   3.016   3.016   3.016   3.016
  3.347   9.997   9.997   9.997   9.997   9.997  12.181  12.181
 12.181  17.386  36.039  36.039  36.039  36.039  36.039  36.039
 36.039  45.442  45.442  45.442  45.442  45.442  53.670  53.670
 53.670 101.102
 --------------------------------------------------------------
 
          Ground-State Mulliken Net Atomic Charges

     Atom                 Charge (a.u.)
  ----------------------------------------
      1 Cl                   -1.000000
  ----------------------------------------
  Sum of atomic charges =    -1.000000

 -----------------------------------------------------------------
                    Cartesian Multipole Moments
 -----------------------------------------------------------------
    Charge (ESU x 10^10)
                -4.8032
    Dipole Moment (Debye)
         X      -0.0000      Y      -0.0000      Z       0.0000
       Tot       0.0000
    Quadrupole Moments (Debye-Ang)
        XX     -17.7912     XY       0.0000     YY     -17.8113
        XZ       0.0000     YZ       0.0000     ZZ     -17.7912
    Octopole Moments (Debye-Ang^2)
       XXX      -0.0000    XXY      -0.0000    XYY      -0.0000
       YYY      -0.0000    XXZ       0.0000    XYZ       0.0000
       YYZ       0.0000    XZZ      -0.0000    YZZ      -0.0000
       ZZZ       0.0000
    Hexadecapole Moments (Debye-Ang^3)
      XXXX     -34.1192   XXXY       0.0000   XXYY     -11.3996
      XYYY       0.0000   YYYY     -34.2782   XXXZ       0.0000
      XXYZ       0.0000   XYYZ       0.0000   YYYZ       0.0000
      XXZZ     -11.3731   XYZZ       0.0000   YYZZ     -11.3996
      XZZZ       0.0000   YZZZ       0.0000   ZZZZ     -34.1192
 -----------------------------------------------------------------

 STANDARD THERMODYNAMIC QUANTITIES AT   298.15 K  AND     1.00 ATM

   Translational Enthalpy:        0.889 kcal/mol
   Rotational Enthalpy:           0.000 kcal/mol
   Vibrational Enthalpy:          0.000 kcal/mol
   gas constant (RT):             0.592 kcal/mol
   Translational Entropy:        36.586  cal/mol.K
   Rotational Entropy:            0.000  cal/mol.K
   Vibrational Entropy:           0.000  cal/mol.K

   Total Enthalpy:                1.481 kcal/mol
   Total Entropy:                36.586  cal/mol.K

 -----------------------------------------------------------------

Archival summary:
1\1\n0072.mhg0\SP\ProcedureUnspecified\BasisUnspecified\l1(1-,1)\yhljason\WedOct2103:29:112020WedOct2103:29:112020\0\\#,ProcedureUnspecified,BasisUnspecified,\\-1,1\Cl\\\@

 Total job time:  5.43s(wall), 42.91s(cpu) 
 Wed Oct 21 03:29:11 2020

        *************************************************************
        *                                                           *
        *  Thank you very much for using Q-Chem.  Have a nice day.  *
        *                                                           *
        *************************************************************


 
User input: 5 of 7 
 
Q-Chem Developer Version!
                  Welcome to Q-Chem
     A Quantum Leap Into The Future Of Chemistry


 Q-Chem 5.1, Q-Chem, Inc., Pleasanton, CA (2018)

 Yihan Shao,  Zhengting Gan,  E. Epifanovsky,  A. T. B. Gilbert,  M. Wormit,  
 J. Kussmann,  A. W. Lange,  A. Behn,  Jia Deng,  Xintian Feng,  D. Ghosh,  
 M. Goldey,  P. R. Horn,  L. D. Jacobson,  I. Kaliman,  T. Kus,  A. Landau,  
 Jie Liu,  E. I. Proynov,  R. M. Richard,  R. P. Steele,  E. J. Sundstrom,  
 H. L. Woodcock III,  P. M. Zimmerman,  D. Zuev,  B. Albrecht,  E. Alguire,  
 S. A. Baeppler,  D. Barton,  Z. Benda,  Y. A. Bernard,  E. J. Berquist,  
 K. B. Bravaya,  H. Burton,  D. Casanova,  Chun-Min Chang,  Yunqing Chen,  
 A. Chien,  K. D. Closser,  M. P. Coons,  S. Coriani,  S. Dasgupta,  
 A. L. Dempwolff,  M. Diedenhofen,  Hainam Do,  R. G. Edgar,  Po-Tung Fang,  
 S. Faraji,  S. Fatehi,  Qingguo Feng,  K. D. Fenk,  J. Fosso-Tande,  
 Qinghui Ge,  A. Ghysels,  G. Gidofalvi,  J. Gomes,  J. Gonthier,  A. Gunina,  
 D. Hait,  M. W. D. Hanson-Heine,  P. H. P. Harbach,  A. W. Hauser,  
 J. E. Herr,  E. G. Hohenstein,  Z. C. Holden,  Kerwin Hui,  B. C. Huynh,  
 T.-C. Jagau,  Hyunjun Ji,  B. Kaduk,  K. Khistyaev,  Jaehoon Kim,  
 P. Klunzinger,  K. Koh,  D. Kosenkov,  L. Koulias,  T. Kowalczyk,  
 C. M. Krauter,  A. Kunitsa,  Ka Un Lao,  A. Laurent,  K. V. Lawler,  
 Joonho Lee,  D. Lefrancois,  S. Lehtola,  D. S. Levine,  Yi-Pei Li,  
 You-Sheng Lin,  Fenglai Liu,  E. Livshits,  A. Luenser,  P. Manohar,  
 E. Mansoor,  S. F. Manzer,  Shan-Ping Mao,  Yuezhi Mao,  N. Mardirossian,  
 A. V. Marenich,  T. Markovich,  L. A. Martinez-Martinez,  S. A. Maurer,  
 N. J. Mayhall,  S. C. McKenzie,  J.-M. Mewes,  A. F. Morrison,  
 J. W. Mullinax,  K. Nanda,  T. S. Nguyen-Beck,  R. Olivares-Amaya,  
 J. A. Parkhill,  T. M. Perrine,  F. Plasser,  P. Pokhilko,  S. Prager,  
 A. Prociuk,  E. Ramos,  D. R. Rehn,  F. Rob,  M. Schneider,  N. Sergueev,  
 S. M. Sharada,  S. Sharma,  D. W. Small,  T. Stauch,  T. Stein,  
 Yu-Chuan Su,  A. J. W. Thom,  A. Tkatchenko,  T. Tsuchimochi,  N. M. Tubman,  
 L. Vogt,  M. L. Vidal,  O. Vydrov,  M. A. Watson,  J. Wenzel,  
 M. de Wergifosse,  T. A. Wesolowski,  A. White,  J. Witte,  A. Yamada,  
 Jun Yang,  K. Yao,  S. Yeganeh,  S. R. Yost,  Zhi-Qiang You,  A. Zech,  
 Igor Ying Zhang,  Xing Zhang,  Yan Zhao,  Ying Zhu,  B. R. Brooks,  
 G. K. L. Chan,  C. J. Cramer,  M. S. Gordon,  W. J. Hehre,  A. Klamt,  
 M. W. Schmidt,  C. D. Sherrill,  D. G. Truhlar,  A. Aspuru-Guzik,  R. Baer,  
 A. T. Bell,  N. A. Besley,  Jeng-Da Chai,  A. E. DePrince, III,  
 R. A. DiStasio Jr.,  A. Dreuw,  B. D. Dunietz,  T. R. Furlani,  
 Chao-Ping Hsu,  Yousung Jung,  Jing Kong,  D. S. Lambrecht,  WanZhen Liang,  
 C. Ochsenfeld,  V. A. Rassolov,  L. V. Slipchenko,  J. E. Subotnik,  
 T. Van Voorhis,  J. M. Herbert,  A. I. Krylov,  P. M. W. Gill,  M. Head-Gordon

 Contributors to earlier versions of Q-Chem not listed above: 
 R. D. Adamson,  B. Austin,  J. Baker,  G. J. O. Beran,  K. Brandhorst,  
 S. T. Brown,  E. F. C. Byrd,  A. K. Chakraborty,  C.-L. Cheng,  
 Siu Hung Chien,  D. M. Chipman,  D. L. Crittenden,  H. Dachsel,  
 R. J. Doerksen,  A. D. Dutoi,  L. Fusti-Molnar,  W. A. Goddard III,  
 A. Golubeva-Zadorozhnaya,  S. R. Gwaltney,  G. Hawkins,  A. Heyden,  
 S. Hirata,  G. Kedziora,  F. J. Keil,  C. Kelley,  Jihan Kim,  R. A. King,  
 R. Z. Khaliullin,  P. P. Korambath,  W. Kurlancheek,  A. M. Lee,  M. S. Lee,  
 S. V. Levchenko,  Ching Yeh Lin,  D. Liotard,  R. C. Lochan,  I. Lotan,  
 P. E. Maslen,  N. Nair,  D. P. O'Neill,  D. Neuhauser,  E. Neuscamman,  
 C. M. Oana,  R. Olson,  B. Peters,  R. Peverati,  P. A. Pieniazek,  
 Y. M. Rhee,  J. Ritchie,  M. A. Rohrdanz,  E. Rosta,  N. J. Russ,  
 H. F. Schaefer III,  N. E. Schultz,  N. Shenvi,  A. C. Simmonett,  A. Sodt,  
 D. Stuck,  K. S. Thanthiriwatte,  V. Vanovschi,  Tao Wang,  A. Warshel,  
 C. F. Williams,  Q. Wu,  X. Xu,  W. Zhang

 Please cite Q-Chem as follows:
 Y. Shao et al., Mol. Phys. 113, 184-215 (2015)
 DOI: 10.1080/00268976.2014.952696

 Q-Chem 5.1.1 for Intel X86 EM64T Linux

 Parts of Q-Chem use Armadillo 8.300.2 (Tropical Shenanigans).
 http://arma.sourceforge.net/

 Q-Chem begins on Wed Oct 21 03:29:11 2020  

Host: n0072.mhg0
0

     Scratch files written to /local/scratch/users/yhljason/Cl-_XYGJOS_aug-cc-pcVTZ.inp20201021032846//
The previous job contains 0 fragments, simply inherited here
Input Ideriv = 2
Curr. Ideriv = -1
Max.  Ideriv = 2

Checking the input file for inconsistencies... 	...done.

--------------------------------------------------------------
User input:
--------------------------------------------------------------
$molecule
read
$end

$rem

jobtype sp
exchange XYGJOS
xc_grid 000099000590
basis aug-cc-pcVTZ
aux_basis rimp2-aug-cc-pVTZ
max_scf_cycles 200
thresh 14
scf_convergence 8
mem_total 128000
cc_memory 96000
cc_backend xm
mem_static 1500
symmetry false
sym_ignore true
scf_guess read
unrestricted false
scf_algorithm gdm
n_frozen_core 0
$end

$multipole_field
YY -0.0001
$end


--------------------------------------------------------------
 ----------------------------------------------------------------
             Standard Nuclear Orientation (Angstroms)
    I     Atom           X                Y                Z
 ----------------------------------------------------------------
    1      Cl      0.0000000000     0.0000000000     0.0000000000
 ----------------------------------------------------------------
 Nuclear Repulsion Energy =     0.0000000000 hartrees
 There are        9 alpha and        9 beta electrons
 Requested basis set is aug-cc-pCVTZ
 There are 23 shells and 75 basis functions

 Total QAlloc Memory Limit 128000 MB
 Mega-Array Size      1467 MB
 MEM_STATIC part      1500 MB
 Applying Cartesian multipole field
    Component          Value
    ---------          -----
     (0,2,0)       -1.00000E-04
 Requested basis set is rimp2-aug-cc-pVTZ
 There are 37 shells and 147 basis functions
 A cutoff of  1.0D-14 yielded    276 shell pairs
 There are      2984 function pairs (      4236 Cartesian)
 
 -------------------------------------------------------
 OpenMP Integral Computing Module                       
 Release: version 1.0, May 2013, Q-Chem Inc. Pittsburgh 
 -------------------------------------------------------
 Integral Job Info:
 Integral job number is                      11
 Integral operator is                         1
 short-range coefficients                     0
 long-range coefficients              100000000
 Omega coefficients                           0
 if combine SR and LR in K                    0
 Integral screening is                        0
 Integral computing path is                   2
 max size of driver memory is            800000
 size of driver memory is                776718
 size of scratch memory is             29531563
 max col of scratch BK array              10000
 max len of scratch array in speh3          662
 max len of scratch index in speh4           32
 max int batch size is                      520
 min int batch size is                       52
 fixed nKL is                                31
 max L of basis functions is                  3
 order of int derivative is                   0
 number of shells is                         23
 number of basis is                          89
 number of cartesian basis is                89
 number of contracted shell pairs           276
 number of primitive shell pairs           2832
 maxK2 (contraction) of shell pair          169
 max number of K2 of shell pair               1
 max number of CS2 of shell pair             25
 max number of PS2 of shell pair           1014
 mem total for path MDJ                  541408
 -------------------------------------------------------
 Smallest overlap matrix eigenvalue = 2.31E-03
 Guess MOs from SCF MO coefficient file
 Reading MOs from coefficient file
 Reading MOs from coefficient file
 A restricted hybrid HF-DFT SCF calculation will be
 performed using Geometric Direct Minimization
 Exchange:     0.2000 Hartree-Fock + 0.0800 Slater + 0.7200 B88
 Correlation:  0.1900 VWN1RPA + 0.8100 LYP
 Using Euler-Maclaurin-Lebedev (99,590) quadrature formula
 SCF converges when RMS gradient is below 1.0E-08
Using Q-Chem read-in guess as SCF_GUESS READ specified.

 using 8 threads for integral computing
 -------------------------------------------------------
 OpenMP Integral computing Module                
 Release: version 2.0, May 2017, Q-Chem Inc. Pleasanton 
 -------------------------------------------------------
TIMEINFO->: J/JK contribution 3.94 sec.
 -------------------------------------------------------
 OpenMP BLAS3 based DFT computing Module                
 Release: version 1.0, May 2013, Q-Chem Inc. Pittsburgh 
 -------------------------------------------------------
 ---------------------------------------
  Cycle       Energy        RMS Gradient
 ---------------------------------------
    1    -460.3123353273      2.04E-03 Normal BFGS step
TIMEINFO->: J/JK contribution 3.90 sec.
    2    -460.3123379355      8.73E-04 Normal BFGS step
TIMEINFO->: J/JK contribution 3.90 sec.
    3    -460.3123397992      1.72E-04 Normal BFGS step
TIMEINFO->: J/JK contribution 3.71 sec.
    4    -460.3123399250      3.34E-05 Normal BFGS step
TIMEINFO->: J/JK contribution 3.76 sec.
    5    -460.3123399280      2.26E-06 Normal BFGS step
TIMEINFO->: J/JK contribution 3.72 sec.
    6    -460.3123399280      3.13E-07 Normal BFGS step
TIMEINFO->: J/JK contribution 3.75 sec.
    7    -460.3123399280      5.36E-08 Normal BFGS step
TIMEINFO->: J/JK contribution 3.89 sec.
   GDM::WARNING energy changes are now smaller than effective accuracy.
   GDM::        calculation will continue, but THRESH should be increased
   GDM::        or SCF_CONVERGENCE decreased.
   GDM::        effective_thresh =   3.287527708395466E-009
    8    -460.3123399280      3.10E-09 Convergence criterion met
 ---------------------------------------
 B3LYP orbitals are now ready for the XYGJ-OS calculation.
 XYGJ-OS energy = Exch (0.7731 HF  + 0.2269 Slater) + 
                  Corr (0.2754 LYP + 0.2309 VWN1RPA + 0.4364 OS-MP2)
 SCF time:  CPU 37.87 s  wall 4.75 s
 SCF   energy in the final basis set = -459.67887580
 Total energy in the final basis set = -459.67887580
 Entering Scaled Opposite Spin MP2
 NBasAux in rimp2.F =          147

 OS-MP2 job begins now...

 SOS scaling factor =  0.4
 Form (P|Q)**(-1/2)...
 
 Form (ia|P)...
 Form BiaQ = (ia|P)*(P|Q)**(-1/2)...
 Laplace quadrature loop begins
 Laplace point 1: correlation energy     =        -0.1899793268
 Laplace point 2: correlation energy     =        -0.1096817623
 Laplace point 3: correlation energy     =        -0.0783075886
 Laplace point 4: correlation energy     =        -0.0689822252
 Laplace point 5: correlation energy     =        -0.0261607831
 Laplace point 6: correlation energy     =        -0.0028239497
 Laplace point 7: correlation energy     =        -0.0000881680
 
 singles contribution not yet available for XYGJ-OS 
 Total OS-MP2 correlation energy         =        -0.4760238039

 Total XYGJ-OS energy                    =      -459.8866125904
 
 ------------------------------------------------------------------------------
                     SOSMP2        : Timing summary (seconds)
 ------------------------------------------------------------------------------
     job step          cpu (% of tot)      sys (% of tot)     wall (% of tot)
 ------------------------------------------------------------------------------
  Form inv (P|Q)    0.2217E+00 (10.7)   0.1000E-05 ( 8.3)   0.2800E-01 (10.8)
  Form (ia|P)       0.1394E+01 (67.3)   0.8000E-05 (66.7)   0.1752E+00 (67.3)
  Form  BiaQ        0.4783E-01 ( 2.3)   0.1000E-05 ( 8.3)   0.5981E-02 ( 2.3)
  LP orbitals       0.8759E-01 ( 4.2)   0.2000E-05 (16.7)   0.1097E-01 ( 4.2)
  Form  X(PQ)       0.2166E+00 (10.5)   0.0000E+00 ( 0.0)   0.2711E-01 (10.4)
  Increment EMP2    0.6055E-01 ( 2.9)   0.0000E+00 ( 0.0)   0.7574E-02 ( 2.9)
 ------------------------------------------------------------------------------
   Grand Totals     0.2072E+01          0.1200E-04          0.2602E+00
 ------------------------------------------------------------------------------
 
 --------------------------------------------------------------
 
                    Orbital Energies (a.u.)
 --------------------------------------------------------------
 
 Alpha MOs
 -- Occupied --
*******  -9.134  -6.890  -6.890  -6.890  -0.481  -0.028  -0.028
 -0.028
 -- Virtual --
  0.228   0.228   0.229   0.241   0.463   0.463   0.463   0.463
  0.463   0.721   0.721   0.722   0.885   0.953   0.953   0.953
  0.953   0.954   1.258   1.258   1.259   1.259   1.259   1.259
  1.259   2.309   2.309   2.309   2.309   2.309   2.567   2.567
  2.567   3.017   3.017   3.017   3.017   3.017   3.017   3.017
  3.349   9.998   9.998   9.998   9.998   9.998  12.182  12.182
 12.183  17.388  36.041  36.041  36.041  36.041  36.041  36.041
 36.041  45.443  45.443  45.443  45.443  45.443  53.671  53.671
 53.671 101.103
 --------------------------------------------------------------
 
          Ground-State Mulliken Net Atomic Charges

     Atom                 Charge (a.u.)
  ----------------------------------------
      1 Cl                   -1.000000
  ----------------------------------------
  Sum of atomic charges =    -1.000000

 -----------------------------------------------------------------
                    Cartesian Multipole Moments
 -----------------------------------------------------------------
    Charge (ESU x 10^10)
                -4.8032
    Dipole Moment (Debye)
         X       0.0000      Y       0.0000      Z       0.0000
       Tot       0.0000
    Quadrupole Moments (Debye-Ang)
        XX     -17.7694     XY      -0.0000     YY     -17.7497
        XZ       0.0000     YZ       0.0000     ZZ     -17.7694
    Octopole Moments (Debye-Ang^2)
       XXX       0.0000    XXY       0.0000    XYY       0.0000
       YYY       0.0000    XXZ       0.0000    XYZ       0.0000
       YYZ       0.0000    XZZ       0.0000    YZZ       0.0000
       ZZZ       0.0000
    Hexadecapole Moments (Debye-Ang^3)
      XXXX     -33.9654   XXXY      -0.0000   XXYY     -11.2960
      XYYY      -0.0000   YYYY     -33.8106   XXXZ       0.0000
      XXYZ       0.0000   XYYZ       0.0000   YYYZ       0.0000
      XXZZ     -11.3218   XYZZ      -0.0000   YYZZ     -11.2960
      XZZZ       0.0000   YZZZ       0.0000   ZZZZ     -33.9654
 -----------------------------------------------------------------

 STANDARD THERMODYNAMIC QUANTITIES AT   298.15 K  AND     1.00 ATM

   Translational Enthalpy:        0.889 kcal/mol
   Rotational Enthalpy:           0.000 kcal/mol
   Vibrational Enthalpy:          0.000 kcal/mol
   gas constant (RT):             0.592 kcal/mol
   Translational Entropy:        36.586  cal/mol.K
   Rotational Entropy:            0.000  cal/mol.K
   Vibrational Entropy:           0.000  cal/mol.K

   Total Enthalpy:                1.481 kcal/mol
   Total Entropy:                36.586  cal/mol.K

 -----------------------------------------------------------------

Archival summary:
1\1\n0072.mhg0\SP\ProcedureUnspecified\BasisUnspecified\l1(1-,1)\yhljason\WedOct2103:29:172020WedOct2103:29:172020\0\\#,ProcedureUnspecified,BasisUnspecified,\\-1,1\Cl\\\@

 Total job time:  5.64s(wall), 44.62s(cpu) 
 Wed Oct 21 03:29:17 2020

        *************************************************************
        *                                                           *
        *  Thank you very much for using Q-Chem.  Have a nice day.  *
        *                                                           *
        *************************************************************


 
User input: 6 of 7 
 
Q-Chem Developer Version!
                  Welcome to Q-Chem
     A Quantum Leap Into The Future Of Chemistry


 Q-Chem 5.1, Q-Chem, Inc., Pleasanton, CA (2018)

 Yihan Shao,  Zhengting Gan,  E. Epifanovsky,  A. T. B. Gilbert,  M. Wormit,  
 J. Kussmann,  A. W. Lange,  A. Behn,  Jia Deng,  Xintian Feng,  D. Ghosh,  
 M. Goldey,  P. R. Horn,  L. D. Jacobson,  I. Kaliman,  T. Kus,  A. Landau,  
 Jie Liu,  E. I. Proynov,  R. M. Richard,  R. P. Steele,  E. J. Sundstrom,  
 H. L. Woodcock III,  P. M. Zimmerman,  D. Zuev,  B. Albrecht,  E. Alguire,  
[...]
  Form (ia|P)       0.1395E+01 (67.2)   0.8000E-05 (61.5)   0.1754E+00 (67.0)
  Form  BiaQ        0.4720E-01 ( 2.3)   0.0000E+00 ( 0.0)   0.5905E-02 ( 2.3)
  LP orbitals       0.8476E-01 ( 4.1)   0.1000E-05 ( 7.7)   0.1080E-01 ( 4.1)
  Form  X(PQ)       0.2046E+00 ( 9.9)   0.1000E-05 ( 7.7)   0.2600E-01 ( 9.9)
  Increment EMP2    0.5930E-01 ( 2.9)   0.0000E+00 ( 0.0)   0.7566E-02 ( 2.9)
 ------------------------------------------------------------------------------
   Grand Totals     0.2077E+01          0.1300E-04          0.2618E+00
 ------------------------------------------------------------------------------
 
 --------------------------------------------------------------
 
                    Orbital Energies (a.u.)
 --------------------------------------------------------------
 
 Alpha MOs
 -- Occupied --
*******  -9.136  -6.891  -6.891  -6.891  -0.482  -0.030  -0.029
 -0.029
 -- Virtual --
  0.224   0.226   0.226   0.239   0.461   0.462   0.462   0.462
  0.462   0.720   0.720   0.720   0.884   0.952   0.952   0.952
  0.952   0.952   1.257   1.257   1.257   1.258   1.258   1.258
  1.258   2.307   2.308   2.308   2.308   2.308   2.565   2.566
  2.566   3.016   3.016   3.016   3.016   3.016   3.016   3.016
  3.347   9.997   9.997   9.997   9.997   9.997  12.181  12.181
 12.181  17.386  36.039  36.039  36.039  36.039  36.039  36.039
 36.039  45.442  45.442  45.442  45.442  45.442  53.670  53.670
 53.670 101.102
 --------------------------------------------------------------
 
          Ground-State Mulliken Net Atomic Charges

     Atom                 Charge (a.u.)
  ----------------------------------------
      1 Cl                   -1.000000
  ----------------------------------------
  Sum of atomic charges =    -1.000000

 -----------------------------------------------------------------
                    Cartesian Multipole Moments
 -----------------------------------------------------------------
    Charge (ESU x 10^10)
                -4.8032
    Dipole Moment (Debye)
         X       0.0000      Y      -0.0000      Z       0.0000
       Tot       0.0000
    Quadrupole Moments (Debye-Ang)
        XX     -17.7912     XY      -0.0000     YY     -17.7912
        XZ      -0.0000     YZ       0.0000     ZZ     -17.8113
    Octopole Moments (Debye-Ang^2)
       XXX       0.0000    XXY      -0.0000    XYY       0.0000
       YYY      -0.0000    XXZ       0.0000    XYZ       0.0000
       YYZ       0.0000    XZZ       0.0000    YZZ      -0.0000
       ZZZ       0.0000
    Hexadecapole Moments (Debye-Ang^3)
      XXXX     -34.1192   XXXY      -0.0000   XXYY     -11.3731
      XYYY      -0.0000   YYYY     -34.1192   XXXZ      -0.0000
      XXYZ       0.0000   XYYZ      -0.0000   YYYZ       0.0000
      XXZZ     -11.3996   XYZZ      -0.0000   YYZZ     -11.3996
      XZZZ      -0.0000   YZZZ       0.0000   ZZZZ     -34.2782
 -----------------------------------------------------------------

 STANDARD THERMODYNAMIC QUANTITIES AT   298.15 K  AND     1.00 ATM

   Translational Enthalpy:        0.889 kcal/mol
   Rotational Enthalpy:           0.000 kcal/mol
   Vibrational Enthalpy:          0.000 kcal/mol
   gas constant (RT):             0.592 kcal/mol
   Translational Entropy:        36.586  cal/mol.K
   Rotational Entropy:            0.000  cal/mol.K
   Vibrational Entropy:           0.000  cal/mol.K

   Total Enthalpy:                1.481 kcal/mol
   Total Entropy:                36.586  cal/mol.K

 -----------------------------------------------------------------

Archival summary:
1\1\n0072.mhg0\SP\ProcedureUnspecified\BasisUnspecified\l1(1-,1)\yhljason\WedOct2103:29:232020WedOct2103:29:232020\0\\#,ProcedureUnspecified,BasisUnspecified,\\-1,1\Cl\\\@

 Total job time:  5.56s(wall), 43.80s(cpu) 
 Wed Oct 21 03:29:23 2020

        *************************************************************
        *                                                           *
        *  Thank you very much for using Q-Chem.  Have a nice day.  *
        *                                                           *
        *************************************************************


 
User input: 7 of 7 
 
Q-Chem Developer Version!
                  Welcome to Q-Chem
     A Quantum Leap Into The Future Of Chemistry


 Q-Chem 5.1, Q-Chem, Inc., Pleasanton, CA (2018)

 Yihan Shao,  Zhengting Gan,  E. Epifanovsky,  A. T. B. Gilbert,  M. Wormit,  
 J. Kussmann,  A. W. Lange,  A. Behn,  Jia Deng,  Xintian Feng,  D. Ghosh,  
 M. Goldey,  P. R. Horn,  L. D. Jacobson,  I. Kaliman,  T. Kus,  A. Landau,  
 Jie Liu,  E. I. Proynov,  R. M. Richard,  R. P. Steele,  E. J. Sundstrom,  
 H. L. Woodcock III,  P. M. Zimmerman,  D. Zuev,  B. Albrecht,  E. Alguire,  
 S. A. Baeppler,  D. Barton,  Z. Benda,  Y. A. Bernard,  E. J. Berquist,  
 K. B. Bravaya,  H. Burton,  D. Casanova,  Chun-Min Chang,  Yunqing Chen,  
 A. Chien,  K. D. Closser,  M. P. Coons,  S. Coriani,  S. Dasgupta,  
 A. L. Dempwolff,  M. Diedenhofen,  Hainam Do,  R. G. Edgar,  Po-Tung Fang,  
 S. Faraji,  S. Fatehi,  Qingguo Feng,  K. D. Fenk,  J. Fosso-Tande,  
 Qinghui Ge,  A. Ghysels,  G. Gidofalvi,  J. Gomes,  J. Gonthier,  A. Gunina,  
 D. Hait,  M. W. D. Hanson-Heine,  P. H. P. Harbach,  A. W. Hauser,  
 J. E. Herr,  E. G. Hohenstein,  Z. C. Holden,  Kerwin Hui,  B. C. Huynh,  
 T.-C. Jagau,  Hyunjun Ji,  B. Kaduk,  K. Khistyaev,  Jaehoon Kim,  
 P. Klunzinger,  K. Koh,  D. Kosenkov,  L. Koulias,  T. Kowalczyk,  
 C. M. Krauter,  A. Kunitsa,  Ka Un Lao,  A. Laurent,  K. V. Lawler,  
 Joonho Lee,  D. Lefrancois,  S. Lehtola,  D. S. Levine,  Yi-Pei Li,  
 You-Sheng Lin,  Fenglai Liu,  E. Livshits,  A. Luenser,  P. Manohar,  
 E. Mansoor,  S. F. Manzer,  Shan-Ping Mao,  Yuezhi Mao,  N. Mardirossian,  
 A. V. Marenich,  T. Markovich,  L. A. Martinez-Martinez,  S. A. Maurer,  
 N. J. Mayhall,  S. C. McKenzie,  J.-M. Mewes,  A. F. Morrison,  
 J. W. Mullinax,  K. Nanda,  T. S. Nguyen-Beck,  R. Olivares-Amaya,  
 J. A. Parkhill,  T. M. Perrine,  F. Plasser,  P. Pokhilko,  S. Prager,  
 A. Prociuk,  E. Ramos,  D. R. Rehn,  F. Rob,  M. Schneider,  N. Sergueev,  
 S. M. Sharada,  S. Sharma,  D. W. Small,  T. Stauch,  T. Stein,  
 Yu-Chuan Su,  A. J. W. Thom,  A. Tkatchenko,  T. Tsuchimochi,  N. M. Tubman,  
 L. Vogt,  M. L. Vidal,  O. Vydrov,  M. A. Watson,  J. Wenzel,  
 M. de Wergifosse,  T. A. Wesolowski,  A. White,  J. Witte,  A. Yamada,  
 Jun Yang,  K. Yao,  S. Yeganeh,  S. R. Yost,  Zhi-Qiang You,  A. Zech,  
 Igor Ying Zhang,  Xing Zhang,  Yan Zhao,  Ying Zhu,  B. R. Brooks,  
 G. K. L. Chan,  C. J. Cramer,  M. S. Gordon,  W. J. Hehre,  A. Klamt,  
 M. W. Schmidt,  C. D. Sherrill,  D. G. Truhlar,  A. Aspuru-Guzik,  R. Baer,  
 A. T. Bell,  N. A. Besley,  Jeng-Da Chai,  A. E. DePrince, III,  
 R. A. DiStasio Jr.,  A. Dreuw,  B. D. Dunietz,  T. R. Furlani,  
 Chao-Ping Hsu,  Yousung Jung,  Jing Kong,  D. S. Lambrecht,  WanZhen Liang,  
 C. Ochsenfeld,  V. A. Rassolov,  L. V. Slipchenko,  J. E. Subotnik,  
 T. Van Voorhis,  J. M. Herbert,  A. I. Krylov,  P. M. W. Gill,  M. Head-Gordon

 Contributors to earlier versions of Q-Chem not listed above: 
 R. D. Adamson,  B. Austin,  J. Baker,  G. J. O. Beran,  K. Brandhorst,  
 S. T. Brown,  E. F. C. Byrd,  A. K. Chakraborty,  C.-L. Cheng,  
 Siu Hung Chien,  D. M. Chipman,  D. L. Crittenden,  H. Dachsel,  
 R. J. Doerksen,  A. D. Dutoi,  L. Fusti-Molnar,  W. A. Goddard III,  
 A. Golubeva-Zadorozhnaya,  S. R. Gwaltney,  G. Hawkins,  A. Heyden,  
 S. Hirata,  G. Kedziora,  F. J. Keil,  C. Kelley,  Jihan Kim,  R. A. King,  
 R. Z. Khaliullin,  P. P. Korambath,  W. Kurlancheek,  A. M. Lee,  M. S. Lee,  
 S. V. Levchenko,  Ching Yeh Lin,  D. Liotard,  R. C. Lochan,  I. Lotan,  
 P. E. Maslen,  N. Nair,  D. P. O'Neill,  D. Neuhauser,  E. Neuscamman,  
 C. M. Oana,  R. Olson,  B. Peters,  R. Peverati,  P. A. Pieniazek,  
 Y. M. Rhee,  J. Ritchie,  M. A. Rohrdanz,  E. Rosta,  N. J. Russ,  
 H. F. Schaefer III,  N. E. Schultz,  N. Shenvi,  A. C. Simmonett,  A. Sodt,  
 D. Stuck,  K. S. Thanthiriwatte,  V. Vanovschi,  Tao Wang,  A. Warshel,  
 C. F. Williams,  Q. Wu,  X. Xu,  W. Zhang

 Please cite Q-Chem as follows:
 Y. Shao et al., Mol. Phys. 113, 184-215 (2015)
 DOI: 10.1080/00268976.2014.952696

 Q-Chem 5.1.1 for Intel X86 EM64T Linux

 Parts of Q-Chem use Armadillo 8.300.2 (Tropical Shenanigans).
 http://arma.sourceforge.net/

 Q-Chem begins on Wed Oct 21 03:29:23 2020  

Host: n0072.mhg0
0

     Scratch files written to /local/scratch/users/yhljason/Cl-_XYGJOS_aug-cc-pcVTZ.inp20201021032846//
The previous job contains 0 fragments, simply inherited here
Input Ideriv = 2
Curr. Ideriv = -1
Max.  Ideriv = 2

Checking the input file for inconsistencies... 	...done.

--------------------------------------------------------------
User input:
--------------------------------------------------------------
$molecule
read
$end

$rem

jobtype sp
exchange XYGJOS
xc_grid 000099000590
basis aug-cc-pcVTZ
aux_basis rimp2-aug-cc-pVTZ
max_scf_cycles 200
thresh 14
scf_convergence 8
mem_total 128000
cc_memory 96000
cc_backend xm
mem_static 1500
symmetry false
sym_ignore true
scf_guess read
unrestricted false
scf_algorithm gdm
n_frozen_core 0
$end

$multipole_field
ZZ -0.0001
$end

--------------------------------------------------------------
 ----------------------------------------------------------------
             Standard Nuclear Orientation (Angstroms)
    I     Atom           X                Y                Z
 ----------------------------------------------------------------
    1      Cl      0.0000000000     0.0000000000     0.0000000000
 ----------------------------------------------------------------
 Nuclear Repulsion Energy =     0.0000000000 hartrees
 There are        9 alpha and        9 beta electrons
 Requested basis set is aug-cc-pCVTZ
 There are 23 shells and 75 basis functions

 Total QAlloc Memory Limit 128000 MB
 Mega-Array Size      1467 MB
 MEM_STATIC part      1500 MB
 Applying Cartesian multipole field
    Component          Value
    ---------          -----
     (0,0,2)       -1.00000E-04
 Requested basis set is rimp2-aug-cc-pVTZ
 There are 37 shells and 147 basis functions
 A cutoff of  1.0D-14 yielded    276 shell pairs
 There are      2984 function pairs (      4236 Cartesian)
 
 -------------------------------------------------------
 OpenMP Integral Computing Module                       
 Release: version 1.0, May 2013, Q-Chem Inc. Pittsburgh 
 -------------------------------------------------------
 Integral Job Info:
 Integral job number is                      11
 Integral operator is                         1
 short-range coefficients                     0
 long-range coefficients              100000000
 Omega coefficients                           0
 if combine SR and LR in K                    0
 Integral screening is                        0
 Integral computing path is                   2
 max size of driver memory is            800000
 size of driver memory is                776718
 size of scratch memory is             29531563
 max col of scratch BK array              10000
 max len of scratch array in speh3          662
 max len of scratch index in speh4           32
 max int batch size is                      520
 min int batch size is                       52
 fixed nKL is                                31
 max L of basis functions is                  3
 order of int derivative is                   0
 number of shells is                         23
 number of basis is                          89
 number of cartesian basis is                89
 number of contracted shell pairs           276
 number of primitive shell pairs           2832
 maxK2 (contraction) of shell pair          169
 max number of K2 of shell pair               1
 max number of CS2 of shell pair             25
 max number of PS2 of shell pair           1014
 mem total for path MDJ                  541408
 -------------------------------------------------------
 Smallest overlap matrix eigenvalue = 2.31E-03
 Guess MOs from SCF MO coefficient file
 Reading MOs from coefficient file
 Reading MOs from coefficient file
 A restricted hybrid HF-DFT SCF calculation will be
 performed using Geometric Direct Minimization
 Exchange:     0.2000 Hartree-Fock + 0.0800 Slater + 0.7200 B88
 Correlation:  0.1900 VWN1RPA + 0.8100 LYP
 Using Euler-Maclaurin-Lebedev (99,590) quadrature formula
 SCF converges when RMS gradient is below 1.0E-08
Using Q-Chem read-in guess as SCF_GUESS READ specified.

 using 8 threads for integral computing
 -------------------------------------------------------
 OpenMP Integral computing Module                
 Release: version 2.0, May 2017, Q-Chem Inc. Pleasanton 
 -------------------------------------------------------
TIMEINFO->: J/JK contribution 3.89 sec.
 -------------------------------------------------------
 OpenMP BLAS3 based DFT computing Module                
 Release: version 1.0, May 2013, Q-Chem Inc. Pittsburgh 
 -------------------------------------------------------
 ---------------------------------------
  Cycle       Energy        RMS Gradient
 ---------------------------------------
    1    -460.3123353273      2.04E-03 Normal BFGS step
TIMEINFO->: J/JK contribution 3.97 sec.
    2    -460.3123379355      8.73E-04 Normal BFGS step
TIMEINFO->: J/JK contribution 3.77 sec.
    3    -460.3123397992      1.72E-04 Normal BFGS step
TIMEINFO->: J/JK contribution 3.78 sec.
    4    -460.3123399250      3.34E-05 Normal BFGS step
TIMEINFO->: J/JK contribution 3.57 sec.
    5    -460.3123399280      2.24E-06 Normal BFGS step
TIMEINFO->: J/JK contribution 3.75 sec.
    6    -460.3123399280      3.13E-07 Normal BFGS step
TIMEINFO->: J/JK contribution 3.80 sec.
    7    -460.3123399280      5.36E-08 Normal BFGS step
TIMEINFO->: J/JK contribution 3.69 sec.
   GDM::WARNING energy changes are now smaller than effective accuracy.
   GDM::        calculation will continue, but THRESH should be increased
   GDM::        or SCF_CONVERGENCE decreased.
   GDM::        effective_thresh =   2.796329279242116E-009
    8    -460.3123399280      3.27E-09 Convergence criterion met
 ---------------------------------------
 B3LYP orbitals are now ready for the XYGJ-OS calculation.
 XYGJ-OS energy = Exch (0.7731 HF  + 0.2269 Slater) + 
                  Corr (0.2754 LYP + 0.2309 VWN1RPA + 0.4364 OS-MP2)
 SCF time:  CPU 37.63 s  wall 4.72 s
 SCF   energy in the final basis set = -459.67887580
 Total energy in the final basis set = -459.67887580
 Entering Scaled Opposite Spin MP2
 NBasAux in rimp2.F =          147

 OS-MP2 job begins now...

 SOS scaling factor =  0.4
 Form (P|Q)**(-1/2)...
 
 Form (ia|P)...
 Form BiaQ = (ia|P)*(P|Q)**(-1/2)...
 Laplace quadrature loop begins
 Laplace point 1: correlation energy     =        -0.1899793268
 Laplace point 2: correlation energy     =        -0.1096817623
 Laplace point 3: correlation energy     =        -0.0783075886
 Laplace point 4: correlation energy     =        -0.0689822252
 Laplace point 5: correlation energy     =        -0.0261607831
 Laplace point 6: correlation energy     =        -0.0028239497
 Laplace point 7: correlation energy     =        -0.0000881680
 
 singles contribution not yet available for XYGJ-OS 
 Total OS-MP2 correlation energy         =        -0.4760238039

 Total XYGJ-OS energy                    =      -459.8866125904
 
 ------------------------------------------------------------------------------
                     SOSMP2        : Timing summary (seconds)
 ------------------------------------------------------------------------------
     job step          cpu (% of tot)      sys (% of tot)     wall (% of tot)
 ------------------------------------------------------------------------------
  Form inv (P|Q)    0.2229E+00 (10.8)   0.2000E-05 (15.4)   0.2813E-01 (10.8)
  Form (ia|P)       0.1388E+01 (67.2)   0.8000E-05 (61.5)   0.1746E+00 (67.3)
  Form  BiaQ        0.4871E-01 ( 2.4)   0.0000E+00 ( 0.0)   0.6089E-02 ( 2.3)
  LP orbitals       0.8956E-01 ( 4.3)   0.0000E+00 ( 0.0)   0.1123E-01 ( 4.3)
  Form  X(PQ)       0.2163E+00 (10.5)   0.2000E-05 (15.4)   0.2705E-01 (10.4)
  Increment EMP2    0.5852E-01 ( 2.8)   0.0000E+00 ( 0.0)   0.7314E-02 ( 2.8)
 ------------------------------------------------------------------------------
   Grand Totals     0.2065E+01          0.1300E-04          0.2596E+00
 ------------------------------------------------------------------------------
 
 --------------------------------------------------------------
 
                    Orbital Energies (a.u.)
 --------------------------------------------------------------
 
 Alpha MOs
 -- Occupied --
*******  -9.134  -6.890  -6.890  -6.890  -0.481  -0.028  -0.028
 -0.028
 -- Virtual --
  0.228   0.228   0.229   0.241   0.463   0.463   0.463   0.463
  0.463   0.721   0.721   0.722   0.885   0.953   0.953   0.953
  0.953   0.954   1.258   1.258   1.259   1.259   1.259   1.259
  1.259   2.309   2.309   2.309   2.309   2.309   2.567   2.567
  2.567   3.017   3.017   3.017   3.017   3.017   3.017   3.017
  3.349   9.998   9.998   9.998   9.998   9.998  12.182  12.182
 12.183  17.388  36.041  36.041  36.041  36.041  36.041  36.041
 36.041  45.443  45.443  45.443  45.443  45.443  53.671  53.671
 53.671 101.103
 --------------------------------------------------------------
 
          Ground-State Mulliken Net Atomic Charges

     Atom                 Charge (a.u.)
  ----------------------------------------
      1 Cl                   -1.000000
  ----------------------------------------
  Sum of atomic charges =    -1.000000

 -----------------------------------------------------------------
                    Cartesian Multipole Moments
 -----------------------------------------------------------------
    Charge (ESU x 10^10)
                -4.8032
    Dipole Moment (Debye)
         X      -0.0000      Y      -0.0000      Z      -0.0000
       Tot       0.0000
    Quadrupole Moments (Debye-Ang)
        XX     -17.7694     XY       0.0000     YY     -17.7694
        XZ       0.0000     YZ       0.0000     ZZ     -17.7497
    Octopole Moments (Debye-Ang^2)
       XXX      -0.0000    XXY      -0.0000    XYY      -0.0000
       YYY      -0.0000    XXZ       0.0000    XYZ       0.0000
       YYZ       0.0000    XZZ      -0.0000    YZZ      -0.0000
       ZZZ       0.0000
    Hexadecapole Moments (Debye-Ang^3)
      XXXX     -33.9654   XXXY       0.0000   XXYY     -11.3218
      XYYY       0.0000   YYYY     -33.9654   XXXZ      -0.0000
      XXYZ       0.0000   XYYZ       0.0000   YYYZ       0.0000
      XXZZ     -11.2960   XYZZ       0.0000   YYZZ     -11.2960
      XZZZ      -0.0000   YZZZ       0.0000   ZZZZ     -33.8106
 -----------------------------------------------------------------

 STANDARD THERMODYNAMIC QUANTITIES AT   298.15 K  AND     1.00 ATM

   Translational Enthalpy:        0.889 kcal/mol
   Rotational Enthalpy:           0.000 kcal/mol
   Vibrational Enthalpy:          0.000 kcal/mol
   gas constant (RT):             0.592 kcal/mol
   Translational Entropy:        36.586  cal/mol.K
   Rotational Entropy:            0.000  cal/mol.K
   Vibrational Entropy:           0.000  cal/mol.K

   Total Enthalpy:                1.481 kcal/mol
   Total Entropy:                36.586  cal/mol.K

 -----------------------------------------------------------------

Archival summary:
1\1\n0072.mhg0\SP\ProcedureUnspecified\BasisUnspecified\l1(1-,1)\yhljason\WedOct2103:29:282020WedOct2103:29:282020\0\\#,ProcedureUnspecified,BasisUnspecified,\\-1,1\Cl\\\@

 Total job time:  5.60s(wall), 44.32s(cpu) 
 Wed Oct 21 03:29:28 2020

        *************************************************************
        *                                                           *
        *  Thank you very much for using Q-Chem.  Have a nice day.  *
        *                                                           *
        *************************************************************


