Q-Chem Developer Version!
                  Welcome to Q-Chem
     A Quantum Leap Into The Future Of Chemistry


 Q-Chem 5.1, Q-Chem, Inc., Pleasanton, CA (2018)

 Yihan Shao,  Zhengting Gan,  E. Epifanovsky,  A. T. B. Gilbert,  M. Wormit,  
 J. Kussmann,  A. W. Lange,  A. Behn,  Jia Deng,  Xintian Feng,  D. Ghosh,  
 M. Goldey,  P. R. Horn,  L. D. Jacobson,  I. Kaliman,  T. Kus,  A. Landau,  
 Jie Liu,  E. I. Proynov,  R. M. Richard,  R. P. Steele,  E. J. Sundstrom,  
 H. L. Woodcock III,  P. M. Zimmerman,  D. Zuev,  B. Albrecht,  E. Alguire,  
 S. A. Baeppler,  D. Barton,  Z. Benda,  Y. A. Bernard,  E. J. Berquist,  
 K. B. Bravaya,  H. Burton,  D. Casanova,  Chun-Min Chang,  Yunqing Chen,  
 A. Chien,  K. D. Closser,  M. P. Coons,  S. Coriani,  S. Dasgupta,  
 A. L. Dempwolff,  M. Diedenhofen,  Hainam Do,  R. G. Edgar,  Po-Tung Fang,  
 S. Faraji,  S. Fatehi,  Qingguo Feng,  K. D. Fenk,  J. Fosso-Tande,  
 Qinghui Ge,  A. Ghysels,  G. Gidofalvi,  J. Gomes,  J. Gonthier,  A. Gunina,  
 D. Hait,  M. W. D. Hanson-Heine,  P. H. P. Harbach,  A. W. Hauser,  
 J. E. Herr,  E. G. Hohenstein,  Z. C. Holden,  Kerwin Hui,  B. C. Huynh,  
 T.-C. Jagau,  Hyunjun Ji,  B. Kaduk,  K. Khistyaev,  Jaehoon Kim,  
 P. Klunzinger,  K. Koh,  D. Kosenkov,  L. Koulias,  T. Kowalczyk,  
 C. M. Krauter,  A. Kunitsa,  Ka Un Lao,  A. Laurent,  K. V. Lawler,  
 Joonho Lee,  D. Lefrancois,  S. Lehtola,  D. S. Levine,  Yi-Pei Li,  
 You-Sheng Lin,  Fenglai Liu,  E. Livshits,  A. Luenser,  P. Manohar,  
 E. Mansoor,  S. F. Manzer,  Shan-Ping Mao,  Yuezhi Mao,  N. Mardirossian,  
 A. V. Marenich,  T. Markovich,  L. A. Martinez-Martinez,  S. A. Maurer,  
 N. J. Mayhall,  S. C. McKenzie,  J.-M. Mewes,  A. F. Morrison,  
 J. W. Mullinax,  K. Nanda,  T. S. Nguyen-Beck,  R. Olivares-Amaya,  
 J. A. Parkhill,  T. M. Perrine,  F. Plasser,  P. Pokhilko,  S. Prager,  
 A. Prociuk,  E. Ramos,  D. R. Rehn,  F. Rob,  M. Schneider,  N. Sergueev,  
 S. M. Sharada,  S. Sharma,  D. W. Small,  T. Stauch,  T. Stein,  
 Yu-Chuan Su,  A. J. W. Thom,  A. Tkatchenko,  T. Tsuchimochi,  N. M. Tubman,  
 L. Vogt,  M. L. Vidal,  O. Vydrov,  M. A. Watson,  J. Wenzel,  
 M. de Wergifosse,  T. A. Wesolowski,  A. White,  J. Witte,  A. Yamada,  
 Jun Yang,  K. Yao,  S. Yeganeh,  S. R. Yost,  Zhi-Qiang You,  A. Zech,  
 Igor Ying Zhang,  Xing Zhang,  Yan Zhao,  Ying Zhu,  B. R. Brooks,  
 G. K. L. Chan,  C. J. Cramer,  M. S. Gordon,  W. J. Hehre,  A. Klamt,  
 M. W. Schmidt,  C. D. Sherrill,  D. G. Truhlar,  A. Aspuru-Guzik,  R. Baer,  
 A. T. Bell,  N. A. Besley,  Jeng-Da Chai,  A. E. DePrince, III,  
 R. A. DiStasio Jr.,  A. Dreuw,  B. D. Dunietz,  T. R. Furlani,  
 Chao-Ping Hsu,  Yousung Jung,  Jing Kong,  D. S. Lambrecht,  WanZhen Liang,  
 C. Ochsenfeld,  V. A. Rassolov,  L. V. Slipchenko,  J. E. Subotnik,  
 T. Van Voorhis,  J. M. Herbert,  A. I. Krylov,  P. M. W. Gill,  M. Head-Gordon

 Contributors to earlier versions of Q-Chem not listed above: 
 R. D. Adamson,  B. Austin,  J. Baker,  G. J. O. Beran,  K. Brandhorst,  
 S. T. Brown,  E. F. C. Byrd,  A. K. Chakraborty,  C.-L. Cheng,  
 Siu Hung Chien,  D. M. Chipman,  D. L. Crittenden,  H. Dachsel,  
 R. J. Doerksen,  A. D. Dutoi,  L. Fusti-Molnar,  W. A. Goddard III,  
 A. Golubeva-Zadorozhnaya,  S. R. Gwaltney,  G. Hawkins,  A. Heyden,  
 S. Hirata,  G. Kedziora,  F. J. Keil,  C. Kelley,  Jihan Kim,  R. A. King,  
 R. Z. Khaliullin,  P. P. Korambath,  W. Kurlancheek,  A. M. Lee,  M. S. Lee,  
 S. V. Levchenko,  Ching Yeh Lin,  D. Liotard,  R. C. Lochan,  I. Lotan,  
 P. E. Maslen,  N. Nair,  D. P. O'Neill,  D. Neuhauser,  E. Neuscamman,  
 C. M. Oana,  R. Olson,  B. Peters,  R. Peverati,  P. A. Pieniazek,  
 Y. M. Rhee,  J. Ritchie,  M. A. Rohrdanz,  E. Rosta,  N. J. Russ,  
 H. F. Schaefer III,  N. E. Schultz,  N. Shenvi,  A. C. Simmonett,  A. Sodt,  
 D. Stuck,  K. S. Thanthiriwatte,  V. Vanovschi,  Tao Wang,  A. Warshel,  
 C. F. Williams,  Q. Wu,  X. Xu,  W. Zhang

 Please cite Q-Chem as follows:
 Y. Shao et al., Mol. Phys. 113, 184-215 (2015)
 DOI: 10.1080/00268976.2014.952696

 Q-Chem 5.1.1 for Intel X86 EM64T Linux

 Parts of Q-Chem use Armadillo 8.300.2 (Tropical Shenanigans).
 http://arma.sourceforge.net/

 Q-Chem begins on Wed Oct 21 03:28:58 2020  

Host: n0081.mhg0
0

     Scratch files written to /local/scratch/users/yhljason/HCCF_XYGJOS_aug-cc-pcVTZ.inp20201021032855//
Input Ideriv = 2
Curr. Ideriv = -1
Max.  Ideriv = 2

Checking the input file for inconsistencies... 	...done.

--------------------------------------------------------------
User input:
--------------------------------------------------------------
$molecule
0 1
        C       0.0000000000     0.0000000000    -0.0942000000
        C       0.0000000000     0.0000000000    -1.2922000000
         F       0.0000000000     0.0000000000     1.1848000000
         H       0.0000000000     0.0000000000    -2.3452000000
$end

$rem
jobtype sp
exchange XYGJOS
xc_grid 000099000590
basis aug-cc-pcVTZ
aux_basis rimp2-aug-cc-pVTZ
max_scf_cycles 200
thresh 14
scf_convergence 8
scf_algorithm gdm
symmetry false
sym_ignore true
unrestricted false
gen_scfman false
internal_stability_iter 15
internal_stability_davidson_iter 200
mem_total 128000
cc_memory 96000
cc_backend xm
mem_static 1500
n_frozen_core 0
$end



--------------------------------------------------------------
 ----------------------------------------------------------------
             Standard Nuclear Orientation (Angstroms)
    I     Atom           X                Y                Z
 ----------------------------------------------------------------
    1      C       0.0000000000     0.0000000000    -0.0942000000
    2      C       0.0000000000     0.0000000000    -1.2922000000
    3      F       0.0000000000     0.0000000000     1.1848000000
    4      H       0.0000000000     0.0000000000    -2.3452000000
 ----------------------------------------------------------------
 Nuclear Repulsion Energy =    55.5552441247 hartrees
 There are       11 alpha and       11 beta electrons
 Requested basis set is aug-cc-pCVTZ
 There are 66 shells and 200 basis functions

 Total QAlloc Memory Limit 128000 MB
 Mega-Array Size      1467 MB
 MEM_STATIC part      1500 MB

                       Distance Matrix (Angstroms)
             C (  1)   C (  2)   F (  3)
   C (  2)  1.198000
   F (  3)  1.279000  2.477000
   H (  4)  2.251000  1.053000  3.530000
 
 Requested basis set is rimp2-aug-cc-pVTZ
 There are 98 shells and 364 basis functions
 A cutoff of  1.0D-14 yielded   2127 shell pairs
 There are     19759 function pairs (     26772 Cartesian)
 
 -------------------------------------------------------
 OpenMP Integral Computing Module                       
 Release: version 1.0, May 2013, Q-Chem Inc. Pittsburgh 
 -------------------------------------------------------
 Integral Job Info:
 Integral job number is                      11
 Integral operator is                         1
 short-range coefficients                     0
 long-range coefficients              100000000
 Omega coefficients                           0
 if combine SR and LR in K                    0
 Integral screening is                        0
 Integral computing path is                   2
 max size of driver memory is            800000
 size of driver memory is                776718
 size of scratch memory is              6691272
 max col of scratch BK array              10000
 max len of scratch array in speh3          662
 max len of scratch index in speh4           32
 max int batch size is                      520
 min int batch size is                       52
 fixed nKL is                                52
 max L of basis functions is                  3
 order of int derivative is                   0
 number of shells is                         66
 number of basis is                         232
 number of cartesian basis is               232
 number of contracted shell pairs          2127
 number of primitive shell pairs           5689
 maxK2 (contraction) of shell pair           64
 max number of K2 of shell pair               1
 max number of CS2 of shell pair            321
 max number of PS2 of shell pair            704
 mem total for path MDJ                  600000
 -------------------------------------------------------
 Smallest overlap matrix eigenvalue = 1.17E-05

 Scale SEOQF with 1.000000e-01/1.000000e-01/1.000000e-01

 Standard Electronic Orientation quadrupole field applied
 Nucleus-field energy     =    -0.0000000030 hartrees
 Guess from superposition of atomic densities
 Warning:  Energy on first SCF cycle will be non-variational
 SAD guess density has 22.000000 electrons
 A restricted hybrid HF-DFT SCF calculation will be
 performed using Pulay DIIS + Geometric Direct Minimization
 Exchange:     0.2000 Hartree-Fock + 0.0800 Slater + 0.7200 B88
 Correlation:  0.1900 VWN1RPA + 0.8100 LYP
 Using Euler-Maclaurin-Lebedev (99,590) quadrature formula
 SCF converges when RMS gradient is below 1.0E-08
 using 8 threads for integral computing
 -------------------------------------------------------
 OpenMP Integral computing Module                
 Release: version 2.0, May 2017, Q-Chem Inc. Pleasanton 
 -------------------------------------------------------
TIMEINFO->: J/JK contribution 13.78 sec.
 -------------------------------------------------------
 OpenMP BLAS3 based DFT computing Module                
 Release: version 1.0, May 2013, Q-Chem Inc. Pittsburgh 
 -------------------------------------------------------
 ---------------------------------------
  Cycle       Energy        RMS Gradient
 ---------------------------------------
    1    -177.0808808736      2.68E-02 Done DIIS. Switching to GDM
TIMEINFO->: J/JK contribution 34.61 sec.
    2    -176.5394081890      1.59E-01 Descent step
TIMEINFO->: J/JK contribution 33.59 sec.
    3    -176.5191838142      3.13E-02 Line search: overstep
TIMEINFO->: J/JK contribution 33.51 sec.
    4    -176.6108184343      4.30E-02 Descent step
TIMEINFO->: J/JK contribution 34.19 sec.
    5    -176.6145783683      6.31E-02 Normal BFGS step
TIMEINFO->: J/JK contribution 34.79 sec.
    6    -176.6199226452      1.73E-03 Normal BFGS step
TIMEINFO->: J/JK contribution 35.19 sec.
    7    -176.6199461810      1.70E-03 Normal BFGS step
TIMEINFO->: J/JK contribution 34.21 sec.
    8    -176.6199609024      5.64E-04 Normal BFGS step
TIMEINFO->: J/JK contribution 34.32 sec.
    9    -176.6199639790      2.31E-04 Normal BFGS step
TIMEINFO->: J/JK contribution 34.27 sec.
   10    -176.6199648011      2.63E-05 Normal BFGS step
TIMEINFO->: J/JK contribution 34.62 sec.
   11    -176.6199648063      2.88E-06 Normal BFGS step
TIMEINFO->: J/JK contribution 32.61 sec.
   12    -176.6199648064      2.50E-07 Normal BFGS step
TIMEINFO->: J/JK contribution 30.82 sec.
   13    -176.6199648064      3.98E-08 Normal BFGS step
TIMEINFO->: J/JK contribution 30.61 sec.
   14    -176.6199648064      1.25E-08 Normal BFGS step
TIMEINFO->: J/JK contribution 28.34 sec.
   GDM::WARNING energy changes are now smaller than effective accuracy.
   GDM::        calculation will continue, but THRESH should be increased
   GDM::        or SCF_CONVERGENCE decreased.
   GDM::        effective_thresh =   2.545828318989418E-009
   15    -176.6199648064      2.90E-08 Normal BFGS step
TIMEINFO->: J/JK contribution 33.54 sec.
   16    -176.6199648064      7.45E-09 Convergence criterion met
 ---------------------------------------
 B3LYP orbitals are now ready for the XYGJ-OS calculation.
 XYGJ-OS energy = Exch (0.7731 HF  + 0.2269 Slater) + 
                  Corr (0.2754 LYP + 0.2309 VWN1RPA + 0.4364 OS-MP2)
 SCF time:  CPU 704.40 s  wall 88.77 s
 SCF   energy in the final basis set = -175.91305681
 Total energy in the final basis set = -175.91305681
 Entering Scaled Opposite Spin MP2
 NBasAux in rimp2.F =          364

 OS-MP2 job begins now...

 SOS scaling factor =  0.4
 Form (P|Q)**(-1/2)...
 
 Form (ia|P)...
 Form BiaQ = (ia|P)*(P|Q)**(-1/2)...
 Laplace quadrature loop begins
 Laplace point 1: correlation energy     =        -0.1654966531
 Laplace point 2: correlation energy     =        -0.1734448544
 Laplace point 3: correlation energy     =        -0.1983317931
 Laplace point 4: correlation energy     =        -0.1390386137
 Laplace point 5: correlation energy     =        -0.0497463217
 Laplace point 6: correlation energy     =        -0.0070090086
 Laplace point 7: correlation energy     =        -0.0001212619
 
 singles contribution not yet available for XYGJ-OS 
 Total OS-MP2 correlation energy         =        -0.7331885066

 Total XYGJ-OS energy                    =      -176.2330202706
 
 ------------------------------------------------------------------------------
                     SOSMP2        : Timing summary (seconds)
 ------------------------------------------------------------------------------
     job step          cpu (% of tot)      sys (% of tot)     wall (% of tot)
 ------------------------------------------------------------------------------
  Form inv (P|Q)    0.9266E+00 ( 7.0)   0.5000E-05 ( 8.6)   0.1165E+00 ( 5.8)
  Form (ia|P)       0.9593E+01 (72.0)   0.3300E-04 (56.9)   0.1204E+01 (60.0)
  Form  BiaQ        0.9266E+00 ( 7.0)   0.8000E-05 (13.8)   0.1162E+00 ( 5.8)
  LP orbitals       0.2895E+00 ( 2.2)   0.7000E-05 (12.1)   0.9788E-01 ( 4.9)
  Form  X(PQ)       0.1168E+01 ( 8.8)   0.3000E-05 ( 5.2)   0.3600E+00 (17.9)
  Increment EMP2    0.1824E+00 ( 1.4)   0.1000E-05 ( 1.7)   0.7774E-01 ( 3.9)
 ------------------------------------------------------------------------------
   Grand Totals     0.1333E+02          0.5800E-04          0.2007E+01
 ------------------------------------------------------------------------------
 
 --------------------------------------------------------------
 
                    Orbital Energies (a.u.)
 --------------------------------------------------------------
 
 Alpha MOs
 -- Occupied --
-24.771 -10.275 -10.191  -1.310  -0.778  -0.646  -0.542  -0.532
 -0.532  -0.298  -0.298
 -- Virtual --
 -0.015   0.014   0.029   0.029   0.052   0.052   0.059   0.063
  0.094   0.094   0.112   0.148   0.175   0.194   0.194   0.194
  0.194   0.210   0.271   0.271   0.297   0.304   0.304   0.322
  0.322   0.324   0.371   0.371   0.384   0.398   0.496   0.497
  0.497   0.643   0.701   0.701   0.734   0.734   0.756   0.786
  0.809   0.809   0.812   0.812   0.854   0.866   0.866   0.869
  0.869   0.895   0.895   0.972   1.015   1.015   1.038   1.054
  1.054   1.119   1.119   1.124   1.124   1.137   1.241   1.258
  1.258   1.367   1.423   1.423   1.524   1.524   1.658   1.658
  1.662   1.781   1.784   1.784   1.882   1.980   1.980   2.063
  2.403   2.403   2.502   2.502   2.506   2.524   2.661   2.661
  2.695   2.695   2.837   2.837   2.910   2.957   2.957   2.977
  2.977   3.033   3.033   3.038   3.077   3.092   3.092   3.231
  3.231   3.353   3.353   3.368   3.368   3.453   3.474   3.474
  3.590   3.590   3.617   3.791   3.791   3.931   4.172   4.219
  4.219   4.306   4.306   4.438   4.438   4.619   4.655   4.655
  4.866   5.400   5.400   5.417   6.318   6.318   6.398   6.662
  6.917   7.931   8.249   8.249   8.546   8.546   8.697   8.697
  8.839   8.839   9.126   9.126   9.193   9.373  14.998  14.998
 15.716  15.716  16.117  16.258  17.660  17.788  31.067  31.067
 32.628  34.914  40.358  40.358  40.448  40.448  40.460  40.460
 40.660  40.663  40.663  41.292  51.863  51.863  52.013  52.013
 52.131  79.695  79.695  80.251  80.251  80.580  81.610  84.503
 87.052 168.207 168.207 169.431 181.302
 --------------------------------------------------------------
 
          Ground-State Mulliken Net Atomic Charges

     Atom                 Charge (a.u.)
  ----------------------------------------
      1 C                     0.379471
      2 C                    -0.619305
      3 F                    -0.219248
      4 H                     0.459082
  ----------------------------------------
  Sum of atomic charges =    -0.000000

 -----------------------------------------------------------------
                    Cartesian Multipole Moments
 -----------------------------------------------------------------
    Charge (ESU x 10^10)
                -0.0000
    Dipole Moment (Debye)
         X      -0.0000      Y      -0.0000      Z      -0.6309
       Tot       0.6309
    Quadrupole Moments (Debye-Ang)
        XX     -17.1453     XY      -0.0000     YY     -17.1453
        XZ       0.0000     YZ       0.0000     ZZ     -13.1383
    Octopole Moments (Debye-Ang^2)
       XXX      -0.0000    XXY      -0.0000    XYY      -0.0000
       YYY      -0.0000    XXZ       5.0599    XYZ       0.0000
       YYZ       5.0599    XZZ      -0.0000    YZZ      -0.0000
       ZZZ      -1.0712
    Hexadecapole Moments (Debye-Ang^3)
      XXXX     -18.2512   XXXY       0.0000   XXYY      -6.0837
      XYYY       0.0000   YYYY     -18.2512   XXXZ       0.0000
      XXYZ       0.0000   XYYZ       0.0000   YYYZ       0.0000
      XXZZ     -26.3520   XYZZ       0.0000   YYZZ     -26.3520
      XZZZ       0.0000   YZZZ       0.0000   ZZZZ     -99.7132
 -----------------------------------------------------------------
Archival summary:
1\1\n0081.mhg0\SP\ProcedureUnspecified\BasisUnspecified\121\yhljason\WedOct2103:30:302020WedOct2103:30:302020\0\\#,ProcedureUnspecified,BasisUnspecified,\\0,1\C\C,1,1.198\H,2,1.053,1,180\F,1,1.279,2,180,3,0,0\\\@

 Total job time:  91.69s(wall), 723.15s(cpu) 
 Wed Oct 21 03:30:30 2020

        *************************************************************
        *                                                           *
        *  Thank you very much for using Q-Chem.  Have a nice day.  *
        *                                                           *
        *************************************************************


 
User input: 2 of 7 
 
Q-Chem Developer Version!
                  Welcome to Q-Chem
     A Quantum Leap Into The Future Of Chemistry


 Q-Chem 5.1, Q-Chem, Inc., Pleasanton, CA (2018)

 Yihan Shao,  Zhengting Gan,  E. Epifanovsky,  A. T. B. Gilbert,  M. Wormit,  
 J. Kussmann,  A. W. Lange,  A. Behn,  Jia Deng,  Xintian Feng,  D. Ghosh,  
 M. Goldey,  P. R. Horn,  L. D. Jacobson,  I. Kaliman,  T. Kus,  A. Landau,  
 Jie Liu,  E. I. Proynov,  R. M. Richard,  R. P. Steele,  E. J. Sundstrom,  
 H. L. Woodcock III,  P. M. Zimmerman,  D. Zuev,  B. Albrecht,  E. Alguire,  
 S. A. Baeppler,  D. Barton,  Z. Benda,  Y. A. Bernard,  E. J. Berquist,  
 K. B. Bravaya,  H. Burton,  D. Casanova,  Chun-Min Chang,  Yunqing Chen,  
 A. Chien,  K. D. Closser,  M. P. Coons,  S. Coriani,  S. Dasgupta,  
 A. L. Dempwolff,  M. Diedenhofen,  Hainam Do,  R. G. Edgar,  Po-Tung Fang,  
 S. Faraji,  S. Fatehi,  Qingguo Feng,  K. D. Fenk,  J. Fosso-Tande,  
 Qinghui Ge,  A. Ghysels,  G. Gidofalvi,  J. Gomes,  J. Gonthier,  A. Gunina,  
 D. Hait,  M. W. D. Hanson-Heine,  P. H. P. Harbach,  A. W. Hauser,  
 J. E. Herr,  E. G. Hohenstein,  Z. C. Holden,  Kerwin Hui,  B. C. Huynh,  
 T.-C. Jagau,  Hyunjun Ji,  B. Kaduk,  K. Khistyaev,  Jaehoon Kim,  
 P. Klunzinger,  K. Koh,  D. Kosenkov,  L. Koulias,  T. Kowalczyk,  
 C. M. Krauter,  A. Kunitsa,  Ka Un Lao,  A. Laurent,  K. V. Lawler,  
 Joonho Lee,  D. Lefrancois,  S. Lehtola,  D. S. Levine,  Yi-Pei Li,  
 You-Sheng Lin,  Fenglai Liu,  E. Livshits,  A. Luenser,  P. Manohar,  
 E. Mansoor,  S. F. Manzer,  Shan-Ping Mao,  Yuezhi Mao,  N. Mardirossian,  
 A. V. Marenich,  T. Markovich,  L. A. Martinez-Martinez,  S. A. Maurer,  
 N. J. Mayhall,  S. C. McKenzie,  J.-M. Mewes,  A. F. Morrison,  
 J. W. Mullinax,  K. Nanda,  T. S. Nguyen-Beck,  R. Olivares-Amaya,  
 J. A. Parkhill,  T. M. Perrine,  F. Plasser,  P. Pokhilko,  S. Prager,  
 A. Prociuk,  E. Ramos,  D. R. Rehn,  F. Rob,  M. Schneider,  N. Sergueev,  
 S. M. Sharada,  S. Sharma,  D. W. Small,  T. Stauch,  T. Stein,  
 Yu-Chuan Su,  A. J. W. Thom,  A. Tkatchenko,  T. Tsuchimochi,  N. M. Tubman,  
 L. Vogt,  M. L. Vidal,  O. Vydrov,  M. A. Watson,  J. Wenzel,  
 M. de Wergifosse,  T. A. Wesolowski,  A. White,  J. Witte,  A. Yamada,  
 Jun Yang,  K. Yao,  S. Yeganeh,  S. R. Yost,  Zhi-Qiang You,  A. Zech,  
 Igor Ying Zhang,  Xing Zhang,  Yan Zhao,  Ying Zhu,  B. R. Brooks,  
 G. K. L. Chan,  C. J. Cramer,  M. S. Gordon,  W. J. Hehre,  A. Klamt,  
 M. W. Schmidt,  C. D. Sherrill,  D. G. Truhlar,  A. Aspuru-Guzik,  R. Baer,  
 A. T. Bell,  N. A. Besley,  Jeng-Da Chai,  A. E. DePrince, III,  
 R. A. DiStasio Jr.,  A. Dreuw,  B. D. Dunietz,  T. R. Furlani,  
 Chao-Ping Hsu,  Yousung Jung,  Jing Kong,  D. S. Lambrecht,  WanZhen Liang,  
 C. Ochsenfeld,  V. A. Rassolov,  L. V. Slipchenko,  J. E. Subotnik,  
 T. Van Voorhis,  J. M. Herbert,  A. I. Krylov,  P. M. W. Gill,  M. Head-Gordon

 Contributors to earlier versions of Q-Chem not listed above: 
 R. D. Adamson,  B. Austin,  J. Baker,  G. J. O. Beran,  K. Brandhorst,  
 S. T. Brown,  E. F. C. Byrd,  A. K. Chakraborty,  C.-L. Cheng,  
 Siu Hung Chien,  D. M. Chipman,  D. L. Crittenden,  H. Dachsel,  
 R. J. Doerksen,  A. D. Dutoi,  L. Fusti-Molnar,  W. A. Goddard III,  
 A. Golubeva-Zadorozhnaya,  S. R. Gwaltney,  G. Hawkins,  A. Heyden,  
 S. Hirata,  G. Kedziora,  F. J. Keil,  C. Kelley,  Jihan Kim,  R. A. King,  
 R. Z. Khaliullin,  P. P. Korambath,  W. Kurlancheek,  A. M. Lee,  M. S. Lee,  
 S. V. Levchenko,  Ching Yeh Lin,  D. Liotard,  R. C. Lochan,  I. Lotan,  
 P. E. Maslen,  N. Nair,  D. P. O'Neill,  D. Neuhauser,  E. Neuscamman,  
 C. M. Oana,  R. Olson,  B. Peters,  R. Peverati,  P. A. Pieniazek,  
 Y. M. Rhee,  J. Ritchie,  M. A. Rohrdanz,  E. Rosta,  N. J. Russ,  
 H. F. Schaefer III,  N. E. Schultz,  N. Shenvi,  A. C. Simmonett,  A. Sodt,  
 D. Stuck,  K. S. Thanthiriwatte,  V. Vanovschi,  Tao Wang,  A. Warshel,  
 C. F. Williams,  Q. Wu,  X. Xu,  W. Zhang

 Please cite Q-Chem as follows:
 Y. Shao et al., Mol. Phys. 113, 184-215 (2015)
 DOI: 10.1080/00268976.2014.952696

 Q-Chem 5.1.1 for Intel X86 EM64T Linux

 Parts of Q-Chem use Armadillo 8.300.2 (Tropical Shenanigans).
 http://arma.sourceforge.net/

 Q-Chem begins on Wed Oct 21 03:30:30 2020  

Host: n0081.mhg0
0

     Scratch files written to /local/scratch/users/yhljason/HCCF_XYGJOS_aug-cc-pcVTZ.inp20201021032855//
The previous job contains 0 fragments, simply inherited here
Input Ideriv = 2
Curr. Ideriv = -1
Max.  Ideriv = 2

Checking the input file for inconsistencies... 	...done.

--------------------------------------------------------------
User input:
--------------------------------------------------------------
$molecule
read
$end

$rem

jobtype sp
exchange XYGJOS
xc_grid 000099000590
basis aug-cc-pcVTZ
aux_basis rimp2-aug-cc-pVTZ
max_scf_cycles 200
thresh 14
scf_convergence 8
mem_total 128000
cc_memory 96000
cc_backend xm
mem_static 1500
symmetry false
sym_ignore true
scf_guess read
unrestricted false
scf_algorithm gdm
n_frozen_core 0
$end

$multipole_field
XX 0.0001
$end


--------------------------------------------------------------
 ----------------------------------------------------------------
             Standard Nuclear Orientation (Angstroms)
    I     Atom           X                Y                Z
 ----------------------------------------------------------------
    1      C       0.0000000000     0.0000000000    -0.0942000000
    2      C       0.0000000000     0.0000000000    -1.2922000000
    3      F       0.0000000000     0.0000000000     1.1848000000
    4      H       0.0000000000     0.0000000000    -2.3452000000
 ----------------------------------------------------------------
 Nuclear Repulsion Energy =    55.5552441247 hartrees
 There are       11 alpha and       11 beta electrons
 Requested basis set is aug-cc-pCVTZ
 There are 66 shells and 200 basis functions

 Total QAlloc Memory Limit 128000 MB
 Mega-Array Size      1467 MB
 MEM_STATIC part      1500 MB

                       Distance Matrix (Angstroms)
             C (  1)   C (  2)   F (  3)
   C (  2)  1.198000
   F (  3)  1.279000  2.477000
   H (  4)  2.251000  1.053000  3.530000
 
 Applying Cartesian multipole field
    Component          Value
    ---------          -----
     (2,0,0)        1.00000E-04
 Requested basis set is rimp2-aug-cc-pVTZ
 There are 98 shells and 364 basis functions
 A cutoff of  1.0D-14 yielded   2127 shell pairs
 There are     19759 function pairs (     26772 Cartesian)
 
 -------------------------------------------------------
 OpenMP Integral Computing Module                       
 Release: version 1.0, May 2013, Q-Chem Inc. Pittsburgh 
 -------------------------------------------------------
 Integral Job Info:
 Integral job number is                      11
 Integral operator is                         1
 short-range coefficients                     0
 long-range coefficients              100000000
 Omega coefficients                           0
 if combine SR and LR in K                    0
 Integral screening is                        0
 Integral computing path is                   2
 max size of driver memory is            800000
 size of driver memory is                776718
 size of scratch memory is              6691272
 max col of scratch BK array              10000
 max len of scratch array in speh3          662
 max len of scratch index in speh4           32
 max int batch size is                      520
 min int batch size is                       52
 fixed nKL is                                52
 max L of basis functions is                  3
 order of int derivative is                   0
 number of shells is                         66
 number of basis is                         232
 number of cartesian basis is               232
 number of contracted shell pairs          2127
 number of primitive shell pairs           5689
 maxK2 (contraction) of shell pair           64
 max number of K2 of shell pair               1
 max number of CS2 of shell pair            321
 max number of PS2 of shell pair            704
 mem total for path MDJ                  600000
 -------------------------------------------------------
 Smallest overlap matrix eigenvalue = 1.17E-05
 Guess MOs from SCF MO coefficient file
 Reading MOs from coefficient file
 Reading MOs from coefficient file
 A restricted hybrid HF-DFT SCF calculation will be
 performed using Geometric Direct Minimization
 Exchange:     0.2000 Hartree-Fock + 0.0800 Slater + 0.7200 B88
 Correlation:  0.1900 VWN1RPA + 0.8100 LYP
 Using Euler-Maclaurin-Lebedev (99,590) quadrature formula
 SCF converges when RMS gradient is below 1.0E-08
Using Q-Chem read-in guess as SCF_GUESS READ specified.

 using 8 threads for integral computing
 -------------------------------------------------------
 OpenMP Integral computing Module                
 Release: version 2.0, May 2017, Q-Chem Inc. Pleasanton 
 -------------------------------------------------------
TIMEINFO->: J/JK contribution 35.90 sec.
 -------------------------------------------------------
 OpenMP BLAS3 based DFT computing Module                
 Release: version 1.0, May 2013, Q-Chem Inc. Pittsburgh 
 -------------------------------------------------------
 ---------------------------------------
  Cycle       Energy        RMS Gradient
 ---------------------------------------
    1    -176.6212395159      3.26E-04 Normal BFGS step
TIMEINFO->: J/JK contribution 36.65 sec.
    2    -176.6212398884      1.12E-04 Normal BFGS step
TIMEINFO->: J/JK contribution 34.25 sec.
    3    -176.6212399481      7.38E-05 Normal BFGS step
TIMEINFO->: J/JK contribution 33.89 sec.
    4    -176.6212399517      6.86E-05 Normal BFGS step
TIMEINFO->: J/JK contribution 33.61 sec.
    5    -176.6212399620      1.49E-05 Normal BFGS step
TIMEINFO->: J/JK contribution 35.01 sec.
    6    -176.6212399640      6.24E-06 Normal BFGS step
TIMEINFO->: J/JK contribution 32.55 sec.
    7    -176.6212399641      5.55E-06 Normal BFGS step
TIMEINFO->: J/JK contribution 32.51 sec.
    8    -176.6212399643      1.29E-06 Normal BFGS step
TIMEINFO->: J/JK contribution 33.37 sec.
    9    -176.6212399643      2.83E-07 Normal BFGS step
TIMEINFO->: J/JK contribution 30.66 sec.
   10    -176.6212399643      1.47E-08 Normal BFGS step
TIMEINFO->: J/JK contribution 29.48 sec.
   11    -176.6212399643      2.02E-09 Convergence criterion met
 ---------------------------------------
 B3LYP orbitals are now ready for the XYGJ-OS calculation.
 XYGJ-OS energy = Exch (0.7731 HF  + 0.2269 Slater) + 
                  Corr (0.2754 LYP + 0.2309 VWN1RPA + 0.4364 OS-MP2)
 SCF time:  CPU 503.51 s  wall 63.53 s
 SCF   energy in the final basis set = -175.91433131
 Total energy in the final basis set = -175.91433131
 Entering Scaled Opposite Spin MP2
 NBasAux in rimp2.F =          364

 OS-MP2 job begins now...

 SOS scaling factor =  0.4
 Form (P|Q)**(-1/2)...
 
 Form (ia|P)...
 Form BiaQ = (ia|P)*(P|Q)**(-1/2)...
 Laplace quadrature loop begins
 Laplace point 1: correlation energy     =        -0.1654927229
 Laplace point 2: correlation energy     =        -0.1734370778
 Laplace point 3: correlation energy     =        -0.1983260935
 Laplace point 4: correlation energy     =        -0.1390407518
 Laplace point 5: correlation energy     =        -0.0497469443
 Laplace point 6: correlation energy     =        -0.0070081092
 Laplace point 7: correlation energy     =        -0.0001212783
 
 singles contribution not yet available for XYGJ-OS 
 Total OS-MP2 correlation energy         =        -0.7331729778

 Total XYGJ-OS energy                    =      -176.2342879970
 
 ------------------------------------------------------------------------------
                     SOSMP2        : Timing summary (seconds)
 ------------------------------------------------------------------------------
     job step          cpu (% of tot)      sys (% of tot)     wall (% of tot)
 ------------------------------------------------------------------------------
  Form inv (P|Q)    0.9759E+00 ( 7.0)   0.5000E-05 ( 8.5)   0.1228E+00 ( 6.1)
  Form (ia|P)       0.9593E+01 (69.3)   0.4200E-04 (71.2)   0.1204E+01 (59.6)
  Form  BiaQ        0.8359E+00 ( 6.0)   0.6000E-05 (10.2)   0.1048E+00 ( 5.2)
  LP orbitals       0.3580E+00 ( 2.6)   0.3000E-05 ( 5.1)   0.9625E-01 ( 4.8)
  Form  X(PQ)       0.1542E+01 (11.1)   0.2000E-05 ( 3.4)   0.3761E+00 (18.6)
  Increment EMP2    0.2935E+00 ( 2.1)   0.0000E+00 ( 0.0)   0.8126E-01 ( 4.0)
 ------------------------------------------------------------------------------
   Grand Totals     0.1384E+02          0.5900E-04          0.2020E+01
 ------------------------------------------------------------------------------
 
 --------------------------------------------------------------
 
                    Orbital Energies (a.u.)
 --------------------------------------------------------------
 
 Alpha MOs
 -- Occupied --
-24.771 -10.276 -10.191  -1.311  -0.778  -0.646  -0.542  -0.532
 -0.532  -0.298  -0.298
 -- Virtual --
 -0.016   0.013   0.027   0.028   0.049   0.051   0.057   0.062
  0.092   0.093   0.110   0.147   0.174   0.192   0.193   0.193
  0.193   0.209   0.269   0.270   0.296   0.303   0.303   0.321
  0.322   0.323   0.370   0.371   0.383   0.397   0.495   0.496
  0.497   0.642   0.700   0.701   0.733   0.733   0.755   0.785
  0.809   0.809   0.811   0.812   0.854   0.865   0.865   0.869
  0.869   0.895   0.895   0.971   1.015   1.015   1.037   1.054
  1.054   1.118   1.118   1.124   1.124   1.137   1.240   1.258
  1.258   1.367   1.423   1.423   1.524   1.524   1.658   1.658
  1.662   1.781   1.784   1.784   1.881   1.980   1.980   2.063
  2.402   2.403   2.501   2.501   2.506   2.523   2.661   2.661
  2.695   2.695   2.837   2.837   2.910   2.957   2.957   2.976
  2.976   3.033   3.033   3.038   3.077   3.092   3.092   3.231
  3.231   3.353   3.353   3.368   3.368   3.453   3.473   3.474
  3.589   3.589   3.617   3.791   3.791   3.931   4.172   4.218
  4.218   4.306   4.306   4.437   4.438   4.618   4.655   4.655
  4.866   5.400   5.400   5.417   6.318   6.318   6.398   6.662
  6.917   7.930   8.249   8.249   8.546   8.546   8.696   8.696
  8.839   8.839   9.126   9.126   9.193   9.373  14.997  14.997
 15.716  15.716  16.117  16.258  17.659  17.788  31.066  31.066
 32.627  34.914  40.358  40.358  40.448  40.448  40.459  40.459
 40.659  40.662  40.662  41.291  51.862  51.862  52.013  52.013
 52.130  79.694  79.695  80.250  80.250  80.580  81.609  84.502
 87.052 168.207 168.207 169.431 181.302
 --------------------------------------------------------------
 
          Ground-State Mulliken Net Atomic Charges

     Atom                 Charge (a.u.)
  ----------------------------------------
      1 C                     0.379360
      2 C                    -0.619700
      3 F                    -0.218953
      4 H                     0.459292
  ----------------------------------------
  Sum of atomic charges =    -0.000000

 -----------------------------------------------------------------
                    Cartesian Multipole Moments
 -----------------------------------------------------------------
    Charge (ESU x 10^10)
                -0.0000
    Dipole Moment (Debye)
         X       0.0000      Y      -0.0000      Z      -0.6298
       Tot       0.6298
    Quadrupole Moments (Debye-Ang)
        XX     -17.1574     XY      -0.0000     YY     -17.1489
        XZ       0.0000     YZ      -0.0000     ZZ     -13.1386
    Octopole Moments (Debye-Ang^2)
       XXX      -0.0000    XXY      -0.0000    XYY      -0.0000
       YYY      -0.0000    XXZ       5.0702    XYZ       0.0000
       YYZ       5.0633    XZZ      -0.0000    YZZ      -0.0000
       ZZZ      -1.0682
    Hexadecapole Moments (Debye-Ang^3)
      XXXX     -18.3102   XXXY      -0.0000   XXYY      -6.0968
      XYYY      -0.0000   YYYY     -18.2707   XXXZ       0.0000
      XXYZ       0.0000   XYYZ       0.0000   YYYZ       0.0000
      XXZZ     -26.3759   XYZZ       0.0000   YYZZ     -26.3597
      XZZZ       0.0000   YZZZ       0.0000   ZZZZ     -99.7185
 -----------------------------------------------------------------
Archival summary:
1\1\n0081.mhg0\SP\ProcedureUnspecified\BasisUnspecified\121\yhljason\WedOct2103:31:362020WedOct2103:31:362020\0\\#,ProcedureUnspecified,BasisUnspecified,\\0,1\C\C,1,1.198\H,2,1.053,1,180\F,1,1.279,2,180,3,0,0\\\@

 Total job time:  66.63s(wall), 525.27s(cpu) 
 Wed Oct 21 03:31:36 2020

        *************************************************************
        *                                                           *
        *  Thank you very much for using Q-Chem.  Have a nice day.  *
        *                                                           *
        *************************************************************


 
User input: 3 of 7 
 
Q-Chem Developer Version!
                  Welcome to Q-Chem
     A Quantum Leap Into The Future Of Chemistry


 Q-Chem 5.1, Q-Chem, Inc., Pleasanton, CA (2018)

 Yihan Shao,  Zhengting Gan,  E. Epifanovsky,  A. T. B. Gilbert,  M. Wormit,  
 J. Kussmann,  A. W. Lange,  A. Behn,  Jia Deng,  Xintian Feng,  D. Ghosh,  
 M. Goldey,  P. R. Horn,  L. D. Jacobson,  I. Kaliman,  T. Kus,  A. Landau,  
 Jie Liu,  E. I. Proynov,  R. M. Richard,  R. P. Steele,  E. J. Sundstrom,  
 H. L. Woodcock III,  P. M. Zimmerman,  D. Zuev,  B. Albrecht,  E. Alguire,  
 S. A. Baeppler,  D. Barton,  Z. Benda,  Y. A. Bernard,  E. J. Berquist,  
 K. B. Bravaya,  H. Burton,  D. Casanova,  Chun-Min Chang,  Yunqing Chen,  
 A. Chien,  K. D. Closser,  M. P. Coons,  S. Coriani,  S. Dasgupta,  
 A. L. Dempwolff,  M. Diedenhofen,  Hainam Do,  R. G. Edgar,  Po-Tung Fang,  
 S. Faraji,  S. Fatehi,  Qingguo Feng,  K. D. Fenk,  J. Fosso-Tande,  
 Qinghui Ge,  A. Ghysels,  G. Gidofalvi,  J. Gomes,  J. Gonthier,  A. Gunina,  
 D. Hait,  M. W. D. Hanson-Heine,  P. H. P. Harbach,  A. W. Hauser,  
 J. E. Herr,  E. G. Hohenstein,  Z. C. Holden,  Kerwin Hui,  B. C. Huynh,  
 T.-C. Jagau,  Hyunjun Ji,  B. Kaduk,  K. Khistyaev,  Jaehoon Kim,  
 P. Klunzinger,  K. Koh,  D. Kosenkov,  L. Koulias,  T. Kowalczyk,  
 C. M. Krauter,  A. Kunitsa,  Ka Un Lao,  A. Laurent,  K. V. Lawler,  
 Joonho Lee,  D. Lefrancois,  S. Lehtola,  D. S. Levine,  Yi-Pei Li,  
 You-Sheng Lin,  Fenglai Liu,  E. Livshits,  A. Luenser,  P. Manohar,  
 E. Mansoor,  S. F. Manzer,  Shan-Ping Mao,  Yuezhi Mao,  N. Mardirossian,  
 A. V. Marenich,  T. Markovich,  L. A. Martinez-Martinez,  S. A. Maurer,  
 N. J. Mayhall,  S. C. McKenzie,  J.-M. Mewes,  A. F. Morrison,  
 J. W. Mullinax,  K. Nanda,  T. S. Nguyen-Beck,  R. Olivares-Amaya,  
 J. A. Parkhill,  T. M. Perrine,  F. Plasser,  P. Pokhilko,  S. Prager,  
 A. Prociuk,  E. Ramos,  D. R. Rehn,  F. Rob,  M. Schneider,  N. Sergueev,  
 S. M. Sharada,  S. Sharma,  D. W. Small,  T. Stauch,  T. Stein,  
 Yu-Chuan Su,  A. J. W. Thom,  A. Tkatchenko,  T. Tsuchimochi,  N. M. Tubman,  
 L. Vogt,  M. L. Vidal,  O. Vydrov,  M. A. Watson,  J. Wenzel,  
 M. de Wergifosse,  T. A. Wesolowski,  A. White,  J. Witte,  A. Yamada,  
 Jun Yang,  K. Yao,  S. Yeganeh,  S. R. Yost,  Zhi-Qiang You,  A. Zech,  
 Igor Ying Zhang,  Xing Zhang,  Yan Zhao,  Ying Zhu,  B. R. Brooks,  
 G. K. L. Chan,  C. J. Cramer,  M. S. Gordon,  W. J. Hehre,  A. Klamt,  
 M. W. Schmidt,  C. D. Sherrill,  D. G. Truhlar,  A. Aspuru-Guzik,  R. Baer,  
 A. T. Bell,  N. A. Besley,  Jeng-Da Chai,  A. E. DePrince, III,  
 R. A. DiStasio Jr.,  A. Dreuw,  B. D. Dunietz,  T. R. Furlani,  
 Chao-Ping Hsu,  Yousung Jung,  Jing Kong,  D. S. Lambrecht,  WanZhen Liang,  
 C. Ochsenfeld,  V. A. Rassolov,  L. V. Slipchenko,  J. E. Subotnik,  
 T. Van Voorhis,  J. M. Herbert,  A. I. Krylov,  P. M. W. Gill,  M. Head-Gordon

 Contributors to earlier versions of Q-Chem not listed above: 
 R. D. Adamson,  B. Austin,  J. Baker,  G. J. O. Beran,  K. Brandhorst,  
 S. T. Brown,  E. F. C. Byrd,  A. K. Chakraborty,  C.-L. Cheng,  
 Siu Hung Chien,  D. M. Chipman,  D. L. Crittenden,  H. Dachsel,  
 R. J. Doerksen,  A. D. Dutoi,  L. Fusti-Molnar,  W. A. Goddard III,  
 A. Golubeva-Zadorozhnaya,  S. R. Gwaltney,  G. Hawkins,  A. Heyden,  
 S. Hirata,  G. Kedziora,  F. J. Keil,  C. Kelley,  Jihan Kim,  R. A. King,  
 R. Z. Khaliullin,  P. P. Korambath,  W. Kurlancheek,  A. M. Lee,  M. S. Lee,  
 S. V. Levchenko,  Ching Yeh Lin,  D. Liotard,  R. C. Lochan,  I. Lotan,  
 P. E. Maslen,  N. Nair,  D. P. O'Neill,  D. Neuhauser,  E. Neuscamman,  
 C. M. Oana,  R. Olson,  B. Peters,  R. Peverati,  P. A. Pieniazek,  
 Y. M. Rhee,  J. Ritchie,  M. A. Rohrdanz,  E. Rosta,  N. J. Russ,  
 H. F. Schaefer III,  N. E. Schultz,  N. Shenvi,  A. C. Simmonett,  A. Sodt,  
 D. Stuck,  K. S. Thanthiriwatte,  V. Vanovschi,  Tao Wang,  A. Warshel,  
 C. F. Williams,  Q. Wu,  X. Xu,  W. Zhang

 Please cite Q-Chem as follows:
 Y. Shao et al., Mol. Phys. 113, 184-215 (2015)
 DOI: 10.1080/00268976.2014.952696

 Q-Chem 5.1.1 for Intel X86 EM64T Linux

 Parts of Q-Chem use Armadillo 8.300.2 (Tropical Shenanigans).
 http://arma.sourceforge.net/

 Q-Chem begins on Wed Oct 21 03:31:37 2020  

Host: n0081.mhg0
0

     Scratch files written to /local/scratch/users/yhljason/HCCF_XYGJOS_aug-cc-pcVTZ.inp20201021032855//
The previous job contains 0 fragments, simply inherited here
Input Ideriv = 2
Curr. Ideriv = -1
Max.  Ideriv = 2

Checking the input file for inconsistencies... 	...done.

--------------------------------------------------------------
User input:
--------------------------------------------------------------
$molecule
read
$end

$rem

jobtype sp
exchange XYGJOS
xc_grid 000099000590
basis aug-cc-pcVTZ
aux_basis rimp2-aug-cc-pVTZ
max_scf_cycles 200
thresh 14
scf_convergence 8
mem_total 128000
cc_memory 96000
cc_backend xm
mem_static 1500
symmetry false
sym_ignore true
scf_guess read
unrestricted false
scf_algorithm gdm
n_frozen_core 0
$end

$multipole_field
XX -0.0001
$end


--------------------------------------------------------------
 ----------------------------------------------------------------
             Standard Nuclear Orientation (Angstroms)
    I     Atom           X                Y                Z
 ----------------------------------------------------------------
    1      C       0.0000000000     0.0000000000    -0.0942000000
    2      C       0.0000000000     0.0000000000    -1.2922000000
    3      F       0.0000000000     0.0000000000     1.1848000000
    4      H       0.0000000000     0.0000000000    -2.3452000000
 ----------------------------------------------------------------
 Nuclear Repulsion Energy =    55.5552441247 hartrees
 There are       11 alpha and       11 beta electrons
 Requested basis set is aug-cc-pCVTZ
 There are 66 shells and 200 basis functions

 Total QAlloc Memory Limit 128000 MB
 Mega-Array Size      1467 MB
 MEM_STATIC part      1500 MB

                       Distance Matrix (Angstroms)
             C (  1)   C (  2)   F (  3)
   C (  2)  1.198000
   F (  3)  1.279000  2.477000
   H (  4)  2.251000  1.053000  3.530000
 
 Applying Cartesian multipole field
    Component          Value
    ---------          -----
     (2,0,0)       -1.00000E-04
 Requested basis set is rimp2-aug-cc-pVTZ
 There are 98 shells and 364 basis functions
 A cutoff of  1.0D-14 yielded   2127 shell pairs
 There are     19759 function pairs (     26772 Cartesian)
 
 -------------------------------------------------------
 OpenMP Integral Computing Module                       
 Release: version 1.0, May 2013, Q-Chem Inc. Pittsburgh 
 -------------------------------------------------------
 Integral Job Info:
 Integral job number is                      11
 Integral operator is                         1
 short-range coefficients                     0
 long-range coefficients              100000000
 Omega coefficients                           0
 if combine SR and LR in K                    0
 Integral screening is                        0
 Integral computing path is                   2
 max size of driver memory is            800000
 size of driver memory is                776718
 size of scratch memory is              6691272
 max col of scratch BK array              10000
 max len of scratch array in speh3          662
 max len of scratch index in speh4           32
 max int batch size is                      520
 min int batch size is                       52
 fixed nKL is                                52
 max L of basis functions is                  3
 order of int derivative is                   0
 number of shells is                         66
 number of basis is                         232
 number of cartesian basis is               232
 number of contracted shell pairs          2127
 number of primitive shell pairs           5689
 maxK2 (contraction) of shell pair           64
 max number of K2 of shell pair               1
 max number of CS2 of shell pair            321
 max number of PS2 of shell pair            704
 mem total for path MDJ                  600000
 -------------------------------------------------------
 Smallest overlap matrix eigenvalue = 1.17E-05
 Guess MOs from SCF MO coefficient file
 Reading MOs from coefficient file
 Reading MOs from coefficient file
 A restricted hybrid HF-DFT SCF calculation will be
 performed using Geometric Direct Minimization
 Exchange:     0.2000 Hartree-Fock + 0.0800 Slater + 0.7200 B88
 Correlation:  0.1900 VWN1RPA + 0.8100 LYP
 Using Euler-Maclaurin-Lebedev (99,590) quadrature formula
 SCF converges when RMS gradient is below 1.0E-08
Using Q-Chem read-in guess as SCF_GUESS READ specified.

 using 8 threads for integral computing
 -------------------------------------------------------
 OpenMP Integral computing Module                
 Release: version 2.0, May 2017, Q-Chem Inc. Pleasanton 
 -------------------------------------------------------
TIMEINFO->: J/JK contribution 36.26 sec.
 -------------------------------------------------------
 OpenMP BLAS3 based DFT computing Module                
 Release: version 1.0, May 2013, Q-Chem Inc. Pittsburgh 
 -------------------------------------------------------
 ---------------------------------------
  Cycle       Energy        RMS Gradient
 ---------------------------------------
    1    -176.6186887484      6.91E-04 Normal BFGS step
TIMEINFO->: J/JK contribution 35.59 sec.
    2    -176.6186902403      2.22E-04 Normal BFGS step
TIMEINFO->: J/JK contribution 35.09 sec.
    3    -176.6186904770      1.50E-04 Normal BFGS step
TIMEINFO->: J/JK contribution 34.11 sec.
    4    -176.6186904919      1.45E-04 Normal BFGS step
TIMEINFO->: J/JK contribution 33.76 sec.
    5    -176.6186905330      2.96E-05 Normal BFGS step
TIMEINFO->: J/JK contribution 34.33 sec.
    6    -176.6186905410      1.27E-05 Normal BFGS step
TIMEINFO->: J/JK contribution 32.75 sec.
    7    -176.6186905415      1.16E-05 Normal BFGS step
TIMEINFO->: J/JK contribution 32.60 sec.
    8    -176.6186905422      2.60E-06 Normal BFGS step
TIMEINFO->: J/JK contribution 32.81 sec.
    9    -176.6186905422      5.53E-07 Normal BFGS step
TIMEINFO->: J/JK contribution 30.81 sec.
   10    -176.6186905422      2.98E-08 Normal BFGS step
TIMEINFO->: J/JK contribution 29.90 sec.
   11    -176.6186905422      4.03E-09 Convergence criterion met
 ---------------------------------------
 B3LYP orbitals are now ready for the XYGJ-OS calculation.
 XYGJ-OS energy = Exch (0.7731 HF  + 0.2269 Slater) + 
                  Corr (0.2754 LYP + 0.2309 VWN1RPA + 0.4364 OS-MP2)
 SCF time:  CPU 504.20 s  wall 63.51 s
 SCF   energy in the final basis set = -175.91178310
 Total energy in the final basis set = -175.91178310
 Entering Scaled Opposite Spin MP2
 NBasAux in rimp2.F =          364

 OS-MP2 job begins now...

 SOS scaling factor =  0.4
 Form (P|Q)**(-1/2)...
 
 Form (ia|P)...
 Form BiaQ = (ia|P)*(P|Q)**(-1/2)...
 Laplace quadrature loop begins
 Laplace point 1: correlation energy     =        -0.1655005718
 Laplace point 2: correlation energy     =        -0.1734526016
 Laplace point 3: correlation energy     =        -0.1983374588
 Laplace point 4: correlation energy     =        -0.1390364796
 Laplace point 5: correlation energy     =        -0.0497457348
 Laplace point 6: correlation energy     =        -0.0070099240
 Laplace point 7: correlation energy     =        -0.0001212466
 
 singles contribution not yet available for XYGJ-OS 
 Total OS-MP2 correlation energy         =        -0.7332040172

 Total XYGJ-OS energy                    =      -176.2317533301
 
 ------------------------------------------------------------------------------
                     SOSMP2        : Timing summary (seconds)
 ------------------------------------------------------------------------------
     job step          cpu (% of tot)      sys (% of tot)     wall (% of tot)
 ------------------------------------------------------------------------------
  Form inv (P|Q)    0.9647E+00 ( 7.6)   0.4000E-05 ( 6.8)   0.1214E+00 ( 6.2)
  Form (ia|P)       0.9460E+01 (74.7)   0.3900E-04 (66.1)   0.1188E+01 (60.8)
  Form  BiaQ        0.8254E+00 ( 6.5)   0.7000E-05 (11.9)   0.1035E+00 ( 5.3)
  LP orbitals       0.2022E+00 ( 1.6)   0.4000E-05 ( 6.8)   0.9243E-01 ( 4.7)
  Form  X(PQ)       0.8298E+00 ( 6.6)   0.4000E-05 ( 6.8)   0.3393E+00 (17.4)
  Increment EMP2    0.1407E+00 ( 1.1)   0.0000E+00 ( 0.0)   0.7507E-01 ( 3.8)
 ------------------------------------------------------------------------------
   Grand Totals     0.1266E+02          0.5900E-04          0.1953E+01
 ------------------------------------------------------------------------------
 
 --------------------------------------------------------------
 
                    Orbital Energies (a.u.)
 --------------------------------------------------------------
 
 Alpha MOs
 -- Occupied --
-24.771 -10.275 -10.190  -1.310  -0.777  -0.646  -0.541  -0.532
 -0.532  -0.298  -0.298
 -- Virtual --
 -0.014   0.015   0.029   0.030   0.053   0.054   0.060   0.065
  0.095   0.096   0.113   0.149   0.176   0.195   0.195   0.195
  0.196   0.211   0.271   0.273   0.298   0.304   0.304   0.323
  0.324   0.325   0.371   0.372   0.385   0.399   0.497   0.498
  0.498   0.644   0.702   0.702   0.734   0.734   0.757   0.787
  0.810   0.810   0.812   0.812   0.854   0.866   0.866   0.870
  0.870   0.896   0.896   0.972   1.016   1.016   1.038   1.054
  1.055   1.119   1.119   1.125   1.125   1.137   1.241   1.258
  1.259   1.367   1.424   1.424   1.525   1.525   1.659   1.659
  1.663   1.782   1.784   1.784   1.882   1.981   1.981   2.064
  2.403   2.403   2.502   2.502   2.506   2.524   2.661   2.661
  2.695   2.696   2.838   2.838   2.910   2.957   2.957   2.977
  2.977   3.034   3.034   3.039   3.078   3.092   3.092   3.231
  3.231   3.353   3.354   3.368   3.368   3.453   3.474   3.474
  3.590   3.590   3.617   3.792   3.792   3.931   4.173   4.219
  4.219   4.306   4.306   4.438   4.438   4.619   4.656   4.656
  4.866   5.401   5.401   5.417   6.318   6.318   6.399   6.663
  6.918   7.931   8.249   8.249   8.546   8.546   8.697   8.697
  8.840   8.840   9.126   9.126   9.193   9.373  14.998  14.998
 15.716  15.716  16.117  16.258  17.660  17.788  31.067  31.067
 32.628  34.914  40.358  40.358  40.448  40.448  40.460  40.460
 40.660  40.663  40.663  41.292  51.863  51.863  52.014  52.014
 52.131  79.695  79.695  80.251  80.251  80.580  81.610  84.503
 87.052 168.208 168.208 169.431 181.302
 --------------------------------------------------------------
 
          Ground-State Mulliken Net Atomic Charges

     Atom                 Charge (a.u.)
  ----------------------------------------
      1 C                     0.379591
      2 C                    -0.618934
      3 F                    -0.219540
      4 H                     0.458882
  ----------------------------------------
  Sum of atomic charges =    -0.000000

 -----------------------------------------------------------------
                    Cartesian Multipole Moments
 -----------------------------------------------------------------
    Charge (ESU x 10^10)
                -0.0000
    Dipole Moment (Debye)
         X      -0.0000      Y       0.0000      Z      -0.6319
       Tot       0.6319
    Quadrupole Moments (Debye-Ang)
        XX     -17.1333     XY      -0.0000     YY     -17.1417
        XZ       0.0000     YZ       0.0000     ZZ     -13.1380
    Octopole Moments (Debye-Ang^2)
       XXX      -0.0000    XXY      -0.0000    XYY      -0.0000
       YYY      -0.0000    XXZ       5.0497    XYZ       0.0000
       YYZ       5.0566    XZZ      -0.0000    YZZ      -0.0000
       ZZZ      -1.0742
    Hexadecapole Moments (Debye-Ang^3)
      XXXX     -18.1932   XXXY      -0.0000   XXYY      -6.0709
      XYYY      -0.0000   YYYY     -18.2319   XXXZ       0.0000
      XXYZ       0.0000   XYYZ       0.0000   YYYZ       0.0000
      XXZZ     -26.3284   XYZZ      -0.0000   YYZZ     -26.3443
      XZZZ       0.0000   YZZZ       0.0000   ZZZZ     -99.7081
 -----------------------------------------------------------------
Archival summary:
1\1\n0081.mhg0\SP\ProcedureUnspecified\BasisUnspecified\121\yhljason\WedOct2103:32:432020WedOct2103:32:432020\0\\#,ProcedureUnspecified,BasisUnspecified,\\0,1\C\C,1,1.198\H,2,1.053,1,180\F,1,1.279,2,180,3,0,0\\\@

 Total job time:  66.52s(wall), 524.69s(cpu) 
 Wed Oct 21 03:32:43 2020

        *************************************************************
        *                                                           *
        *  Thank you very much for using Q-Chem.  Have a nice day.  *
        *                                                           *
        *************************************************************


 
User input: 4 of 7 
 
Q-Chem Developer Version!
                  Welcome to Q-Chem
     A Quantum Leap Into The Future Of Chemistry


 Q-Chem 5.1, Q-Chem, Inc., Pleasanton, CA (2018)

 Yihan Shao,  Zhengting Gan,  E. Epifanovsky,  A. T. B. Gilbert,  M. Wormit,  
 J. Kussmann,  A. W. Lange,  A. Behn,  Jia Deng,  Xintian Feng,  D. Ghosh,  
 M. Goldey,  P. R. Horn,  L. D. Jacobson,  I. Kaliman,  T. Kus,  A. Landau,  
 Jie Liu,  E. I. Proynov,  R. M. Richard,  R. P. Steele,  E. J. Sundstrom,  
 H. L. Woodcock III,  P. M. Zimmerman,  D. Zuev,  B. Albrecht,  E. Alguire,  
 S. A. Baeppler,  D. Barton,  Z. Benda,  Y. A. Bernard,  E. J. Berquist,  
 K. B. Bravaya,  H. Burton,  D. Casanova,  Chun-Min Chang,  Yunqing Chen,  
 A. Chien,  K. D. Closser,  M. P. Coons,  S. Coriani,  S. Dasgupta,  
 A. L. Dempwolff,  M. Diedenhofen,  Hainam Do,  R. G. Edgar,  Po-Tung Fang,  
 S. Faraji,  S. Fatehi,  Qingguo Feng,  K. D. Fenk,  J. Fosso-Tande,  
 Qinghui Ge,  A. Ghysels,  G. Gidofalvi,  J. Gomes,  J. Gonthier,  A. Gunina,  
 D. Hait,  M. W. D. Hanson-Heine,  P. H. P. Harbach,  A. W. Hauser,  
 J. E. Herr,  E. G. Hohenstein,  Z. C. Holden,  Kerwin Hui,  B. C. Huynh,  
 T.-C. Jagau,  Hyunjun Ji,  B. Kaduk,  K. Khistyaev,  Jaehoon Kim,  
 P. Klunzinger,  K. Koh,  D. Kosenkov,  L. Koulias,  T. Kowalczyk,  
 C. M. Krauter,  A. Kunitsa,  Ka Un Lao,  A. Laurent,  K. V. Lawler,  
 Joonho Lee,  D. Lefrancois,  S. Lehtola,  D. S. Levine,  Yi-Pei Li,  
 You-Sheng Lin,  Fenglai Liu,  E. Livshits,  A. Luenser,  P. Manohar,  
 E. Mansoor,  S. F. Manzer,  Shan-Ping Mao,  Yuezhi Mao,  N. Mardirossian,  
 A. V. Marenich,  T. Markovich,  L. A. Martinez-Martinez,  S. A. Maurer,  
 N. J. Mayhall,  S. C. McKenzie,  J.-M. Mewes,  A. F. Morrison,  
 J. W. Mullinax,  K. Nanda,  T. S. Nguyen-Beck,  R. Olivares-Amaya,  
 J. A. Parkhill,  T. M. Perrine,  F. Plasser,  P. Pokhilko,  S. Prager,  
 A. Prociuk,  E. Ramos,  D. R. Rehn,  F. Rob,  M. Schneider,  N. Sergueev,  
 S. M. Sharada,  S. Sharma,  D. W. Small,  T. Stauch,  T. Stein,  
 Yu-Chuan Su,  A. J. W. Thom,  A. Tkatchenko,  T. Tsuchimochi,  N. M. Tubman,  
 L. Vogt,  M. L. Vidal,  O. Vydrov,  M. A. Watson,  J. Wenzel,  
 M. de Wergifosse,  T. A. Wesolowski,  A. White,  J. Witte,  A. Yamada,  
 Jun Yang,  K. Yao,  S. Yeganeh,  S. R. Yost,  Zhi-Qiang You,  A. Zech,  
 Igor Ying Zhang,  Xing Zhang,  Yan Zhao,  Ying Zhu,  B. R. Brooks,  
 G. K. L. Chan,  C. J. Cramer,  M. S. Gordon,  W. J. Hehre,  A. Klamt,  
 M. W. Schmidt,  C. D. Sherrill,  D. G. Truhlar,  A. Aspuru-Guzik,  R. Baer,  
 A. T. Bell,  N. A. Besley,  Jeng-Da Chai,  A. E. DePrince, III,  
 R. A. DiStasio Jr.,  A. Dreuw,  B. D. Dunietz,  T. R. Furlani,  
 Chao-Ping Hsu,  Yousung Jung,  Jing Kong,  D. S. Lambrecht,  WanZhen Liang,  
 C. Ochsenfeld,  V. A. Rassolov,  L. V. Slipchenko,  J. E. Subotnik,  
 T. Van Voorhis,  J. M. Herbert,  A. I. Krylov,  P. M. W. Gill,  M. Head-Gordon

 Contributors to earlier versions of Q-Chem not listed above: 
 R. D. Adamson,  B. Austin,  J. Baker,  G. J. O. Beran,  K. Brandhorst,  
 S. T. Brown,  E. F. C. Byrd,  A. K. Chakraborty,  C.-L. Cheng,  
 Siu Hung Chien,  D. M. Chipman,  D. L. Crittenden,  H. Dachsel,  
 R. J. Doerksen,  A. D. Dutoi,  L. Fusti-Molnar,  W. A. Goddard III,  
 A. Golubeva-Zadorozhnaya,  S. R. Gwaltney,  G. Hawkins,  A. Heyden,  
 S. Hirata,  G. Kedziora,  F. J. Keil,  C. Kelley,  Jihan Kim,  R. A. King,  
 R. Z. Khaliullin,  P. P. Korambath,  W. Kurlancheek,  A. M. Lee,  M. S. Lee,  
 S. V. Levchenko,  Ching Yeh Lin,  D. Liotard,  R. C. Lochan,  I. Lotan,  
 P. E. Maslen,  N. Nair,  D. P. O'Neill,  D. Neuhauser,  E. Neuscamman,  
 C. M. Oana,  R. Olson,  B. Peters,  R. Peverati,  P. A. Pieniazek,  
 Y. M. Rhee,  J. Ritchie,  M. A. Rohrdanz,  E. Rosta,  N. J. Russ,  
 H. F. Schaefer III,  N. E. Schultz,  N. Shenvi,  A. C. Simmonett,  A. Sodt,  
 D. Stuck,  K. S. Thanthiriwatte,  V. Vanovschi,  Tao Wang,  A. Warshel,  
 C. F. Williams,  Q. Wu,  X. Xu,  W. Zhang

 Please cite Q-Chem as follows:
 Y. Shao et al., Mol. Phys. 113, 184-215 (2015)
 DOI: 10.1080/00268976.2014.952696

 Q-Chem 5.1.1 for Intel X86 EM64T Linux

 Parts of Q-Chem use Armadillo 8.300.2 (Tropical Shenanigans).
 http://arma.sourceforge.net/

 Q-Chem begins on Wed Oct 21 03:32:43 2020  

Host: n0081.mhg0
0

     Scratch files written to /local/scratch/users/yhljason/HCCF_XYGJOS_aug-cc-pcVTZ.inp20201021032855//
The previous job contains 0 fragments, simply inherited here
Input Ideriv = 2
Curr. Ideriv = -1
Max.  Ideriv = 2

Checking the input file for inconsistencies... 	...done.

--------------------------------------------------------------
User input:
--------------------------------------------------------------
$molecule
read
$end

$rem

jobtype sp
exchange XYGJOS
xc_grid 000099000590
basis aug-cc-pcVTZ
aux_basis rimp2-aug-cc-pVTZ
max_scf_cycles 200
thresh 14
scf_convergence 8
mem_total 128000
cc_memory 96000
cc_backend xm
mem_static 1500
symmetry false
sym_ignore true
scf_guess read
unrestricted false
scf_algorithm gdm
n_frozen_core 0
$end

$multipole_field
YY 0.0001
$end


--------------------------------------------------------------
 ----------------------------------------------------------------
             Standard Nuclear Orientation (Angstroms)
    I     Atom           X                Y                Z
 ----------------------------------------------------------------
    1      C       0.0000000000     0.0000000000    -0.0942000000
    2      C       0.0000000000     0.0000000000    -1.2922000000
    3      F       0.0000000000     0.0000000000     1.1848000000
    4      H       0.0000000000     0.0000000000    -2.3452000000
 ----------------------------------------------------------------
 Nuclear Repulsion Energy =    55.5552441247 hartrees
 There are       11 alpha and       11 beta electrons
 Requested basis set is aug-cc-pCVTZ
 There are 66 shells and 200 basis functions

 Total QAlloc Memory Limit 128000 MB
 Mega-Array Size      1467 MB
 MEM_STATIC part      1500 MB

                       Distance Matrix (Angstroms)
             C (  1)   C (  2)   F (  3)
   C (  2)  1.198000
   F (  3)  1.279000  2.477000
   H (  4)  2.251000  1.053000  3.530000
 
 Applying Cartesian multipole field
    Component          Value
    ---------          -----
     (0,2,0)        1.00000E-04
 Requested basis set is rimp2-aug-cc-pVTZ
 There are 98 shells and 364 basis functions
 A cutoff of  1.0D-14 yielded   2127 shell pairs
 There are     19759 function pairs (     26772 Cartesian)
 
 -------------------------------------------------------
 OpenMP Integral Computing Module                       
 Release: version 1.0, May 2013, Q-Chem Inc. Pittsburgh 
 -------------------------------------------------------
 Integral Job Info:
 Integral job number is                      11
 Integral operator is                         1
 short-range coefficients                     0
 long-range coefficients              100000000
 Omega coefficients                           0
 if combine SR and LR in K                    0
 Integral screening is                        0
 Integral computing path is                   2
 max size of driver memory is            800000
 size of driver memory is                776718
 size of scratch memory is              6691272
 max col of scratch BK array              10000
 max len of scratch array in speh3          662
 max len of scratch index in speh4           32
 max int batch size is                      520
 min int batch size is                       52
 fixed nKL is                                52
 max L of basis functions is                  3
 order of int derivative is                   0
 number of shells is                         66
 number of basis is                         232
 number of cartesian basis is               232
 number of contracted shell pairs          2127
 number of primitive shell pairs           5689
 maxK2 (contraction) of shell pair           64
 max number of K2 of shell pair               1
 max number of CS2 of shell pair            321
 max number of PS2 of shell pair            704
 mem total for path MDJ                  600000
 -------------------------------------------------------
 Smallest overlap matrix eigenvalue = 1.17E-05
 Guess MOs from SCF MO coefficient file
 Reading MOs from coefficient file
 Reading MOs from coefficient file
 A restricted hybrid HF-DFT SCF calculation will be
 performed using Geometric Direct Minimization
 Exchange:     0.2000 Hartree-Fock + 0.0800 Slater + 0.7200 B88
 Correlation:  0.1900 VWN1RPA + 0.8100 LYP
 Using Euler-Maclaurin-Lebedev (99,590) quadrature formula
 SCF converges when RMS gradient is below 1.0E-08
Using Q-Chem read-in guess as SCF_GUESS READ specified.

 using 8 threads for integral computing
 -------------------------------------------------------
 OpenMP Integral computing Module                
 Release: version 2.0, May 2017, Q-Chem Inc. Pleasanton 
 -------------------------------------------------------
TIMEINFO->: J/JK contribution 35.86 sec.
 -------------------------------------------------------
 OpenMP BLAS3 based DFT computing Module                
 Release: version 1.0, May 2013, Q-Chem Inc. Pittsburgh 
 -------------------------------------------------------
 ---------------------------------------
  Cycle       Energy        RMS Gradient
 ---------------------------------------
    1    -176.6212388045      4.39E-04 Normal BFGS step
TIMEINFO->: J/JK contribution 34.78 sec.
    2    -176.6212396699      1.89E-04 Normal BFGS step
TIMEINFO->: J/JK contribution 34.02 sec.
    3    -176.6212399283      1.06E-04 Normal BFGS step
TIMEINFO->: J/JK contribution 33.82 sec.
    4    -176.6212399119      2.68E-05 Line search: overstep
TIMEINFO->: J/JK contribution 33.83 sec.
    5    -176.6212399558      3.48E-05 Normal BFGS step
TIMEINFO->: J/JK contribution 33.84 sec.
    6    -176.6212399620      1.58E-05 Normal BFGS step
TIMEINFO->: J/JK contribution 32.85 sec.
    7    -176.6212399640      7.02E-06 Normal BFGS step
TIMEINFO->: J/JK contribution 32.48 sec.
   GDM::WARNING energy changes are now smaller than effective accuracy.
   GDM::        calculation will continue, but THRESH should be increased
   GDM::        or SCF_CONVERGENCE decreased.
   GDM::        effective_thresh =   1.100000000000000E-010
    8    -176.6212399640      6.01E-06 Normal BFGS step
TIMEINFO->: J/JK contribution 32.55 sec.
    9    -176.6212399643      1.69E-07 Normal BFGS step
TIMEINFO->: J/JK contribution 30.22 sec.
   10    -176.6212399643      2.90E-08 Normal BFGS step
TIMEINFO->: J/JK contribution 29.87 sec.
   11    -176.6212399643      3.03E-09 Convergence criterion met
 ---------------------------------------
 B3LYP orbitals are now ready for the XYGJ-OS calculation.
 XYGJ-OS energy = Exch (0.7731 HF  + 0.2269 Slater) + 
                  Corr (0.2754 LYP + 0.2309 VWN1RPA + 0.4364 OS-MP2)
 SCF time:  CPU 498.61 s  wall 62.81 s
 SCF   energy in the final basis set = -175.91433131
 Total energy in the final basis set = -175.91433131
 Entering Scaled Opposite Spin MP2
 NBasAux in rimp2.F =          364

 OS-MP2 job begins now...

 SOS scaling factor =  0.4
 Form (P|Q)**(-1/2)...
 
 Form (ia|P)...
 Form BiaQ = (ia|P)*(P|Q)**(-1/2)...
 Laplace quadrature loop begins
 Laplace point 1: correlation energy     =        -0.1654927229
 Laplace point 2: correlation energy     =        -0.1734370778
 Laplace point 3: correlation energy     =        -0.1983260935
 Laplace point 4: correlation energy     =        -0.1390407518
 Laplace point 5: correlation energy     =        -0.0497469442
 Laplace point 6: correlation energy     =        -0.0070081092
 Laplace point 7: correlation energy     =        -0.0001212783
 
 singles contribution not yet available for XYGJ-OS 
 Total OS-MP2 correlation energy         =        -0.7331729777

 Total XYGJ-OS energy                    =      -176.2342879936
 
 ------------------------------------------------------------------------------
                     SOSMP2        : Timing summary (seconds)
 ------------------------------------------------------------------------------
     job step          cpu (% of tot)      sys (% of tot)     wall (% of tot)
 ------------------------------------------------------------------------------
  Form inv (P|Q)    0.9720E+00 ( 7.3)   0.1000E-05 ( 1.8)   0.1223E+00 ( 6.2)
  Form (ia|P)       0.9507E+01 (71.6)   0.4100E-04 (71.9)   0.1194E+01 (60.2)
  Form  BiaQ        0.8223E+00 ( 6.2)   0.6000E-05 (10.5)   0.1031E+00 ( 5.2)
  LP orbitals       0.2978E+00 ( 2.2)   0.4000E-05 ( 7.0)   0.9306E-01 ( 4.7)
  Form  X(PQ)       0.1255E+01 ( 9.5)   0.5000E-05 ( 8.8)   0.3590E+00 (18.1)
  Increment EMP2    0.1824E+00 ( 1.4)   0.0000E+00 ( 0.0)   0.7683E-01 ( 3.9)
 ------------------------------------------------------------------------------
   Grand Totals     0.1328E+02          0.5700E-04          0.1982E+01
 ------------------------------------------------------------------------------
 
 --------------------------------------------------------------
 
                    Orbital Energies (a.u.)
 --------------------------------------------------------------
 
 Alpha MOs
 -- Occupied --
-24.771 -10.276 -10.191  -1.311  -0.778  -0.646  -0.542  -0.532
 -0.532  -0.298  -0.298
 -- Virtual --
 -0.016   0.013   0.027   0.028   0.049   0.051   0.057   0.062
  0.092   0.093   0.110   0.147   0.174   0.192   0.193   0.193
  0.193   0.209   0.269   0.270   0.296   0.303   0.303   0.321
  0.322   0.323   0.370   0.371   0.383   0.397   0.495   0.496
  0.497   0.642   0.700   0.701   0.733   0.733   0.755   0.785
  0.809   0.809   0.811   0.812   0.854   0.865   0.865   0.869
  0.869   0.895   0.895   0.971   1.015   1.015   1.037   1.054
  1.054   1.118   1.118   1.124   1.124   1.137   1.240   1.258
  1.258   1.367   1.423   1.423   1.524   1.524   1.658   1.658
  1.662   1.781   1.784   1.784   1.881   1.980   1.980   2.063
  2.402   2.403   2.501   2.501   2.506   2.523   2.661   2.661
  2.695   2.695   2.837   2.837   2.910   2.957   2.957   2.976
  2.976   3.033   3.033   3.038   3.077   3.092   3.092   3.231
  3.231   3.353   3.353   3.368   3.368   3.453   3.473   3.474
  3.589   3.589   3.617   3.791   3.791   3.931   4.172   4.218
  4.218   4.306   4.306   4.437   4.438   4.618   4.655   4.655
  4.866   5.400   5.400   5.417   6.318   6.318   6.398   6.662
  6.917   7.930   8.249   8.249   8.546   8.546   8.696   8.696
  8.839   8.839   9.126   9.126   9.193   9.373  14.997  14.997
 15.716  15.716  16.117  16.258  17.659  17.788  31.066  31.066
 32.627  34.914  40.358  40.358  40.448  40.448  40.459  40.459
 40.659  40.662  40.662  41.291  51.862  51.862  52.013  52.013
 52.130  79.694  79.695  80.250  80.250  80.580  81.609  84.502
 87.052 168.207 168.207 169.431 181.302
 --------------------------------------------------------------
 
          Ground-State Mulliken Net Atomic Charges

     Atom                 Charge (a.u.)
  ----------------------------------------
      1 C                     0.379360
      2 C                    -0.619700
      3 F                    -0.218953
      4 H                     0.459292
  ----------------------------------------
  Sum of atomic charges =    -0.000000

 -----------------------------------------------------------------
                    Cartesian Multipole Moments
 -----------------------------------------------------------------
    Charge (ESU x 10^10)
                -0.0000
    Dipole Moment (Debye)
         X      -0.0000      Y      -0.0000      Z      -0.6298
       Tot       0.6298
    Quadrupole Moments (Debye-Ang)
        XX     -17.1489     XY       0.0000     YY     -17.1574
        XZ       0.0000     YZ       0.0000     ZZ     -13.1386
    Octopole Moments (Debye-Ang^2)
       XXX      -0.0000    XXY      -0.0000    XYY      -0.0000
       YYY      -0.0000    XXZ       5.0633    XYZ      -0.0000
       YYZ       5.0702    XZZ      -0.0000    YZZ      -0.0000
       ZZZ      -1.0682
    Hexadecapole Moments (Debye-Ang^3)
      XXXX     -18.2707   XXXY       0.0000   XXYY      -6.0968
      XYYY       0.0000   YYYY     -18.3102   XXXZ       0.0000
      XXYZ       0.0000   XYYZ       0.0000   YYYZ       0.0000
      XXZZ     -26.3597   XYZZ       0.0000   YYZZ     -26.3759
      XZZZ       0.0000   YZZZ       0.0000   ZZZZ     -99.7185
 -----------------------------------------------------------------
Archival summary:
1\1\n0081.mhg0\SP\ProcedureUnspecified\BasisUnspecified\121\yhljason\WedOct2103:33:492020WedOct2103:33:492020\0\\#,ProcedureUnspecified,BasisUnspecified,\\0,1\C\C,1,1.198\H,2,1.053,1,180\F,1,1.279,2,180,3,0,0\\\@

 Total job time:  65.86s(wall), 519.61s(cpu) 
 Wed Oct 21 03:33:49 2020

        *************************************************************
        *                                                           *
        *  Thank you very much for using Q-Chem.  Have a nice day.  *
        *                                                           *
        *************************************************************


 
User input: 5 of 7 
 
Q-Chem Developer Version!
                  Welcome to Q-Chem
     A Quantum Leap Into The Future Of Chemistry


 Q-Chem 5.1, Q-Chem, Inc., Pleasanton, CA (2018)

 Yihan Shao,  Zhengting Gan,  E. Epifanovsky,  A. T. B. Gilbert,  M. Wormit,  
 J. Kussmann,  A. W. Lange,  A. Behn,  Jia Deng,  Xintian Feng,  D. Ghosh,  
 M. Goldey,  P. R. Horn,  L. D. Jacobson,  I. Kaliman,  T. Kus,  A. Landau,  
 Jie Liu,  E. I. Proynov,  R. M. Richard,  R. P. Steele,  E. J. Sundstrom,  
 H. L. Woodcock III,  P. M. Zimmerman,  D. Zuev,  B. Albrecht,  E. Alguire,  
 S. A. Baeppler,  D. Barton,  Z. Benda,  Y. A. Bernard,  E. J. Berquist,  
 K. B. Bravaya,  H. Burton,  D. Casanova,  Chun-Min Chang,  Yunqing Chen,  
 A. Chien,  K. D. Closser,  M. P. Coons,  S. Coriani,  S. Dasgupta,  
 A. L. Dempwolff,  M. Diedenhofen,  Hainam Do,  R. G. Edgar,  Po-Tung Fang,  
 S. Faraji,  S. Fatehi,  Qingguo Feng,  K. D. Fenk,  J. Fosso-Tande,  
 Qinghui Ge,  A. Ghysels,  G. Gidofalvi,  J. Gomes,  J. Gonthier,  A. Gunina,  
 D. Hait,  M. W. D. Hanson-Heine,  P. H. P. Harbach,  A. W. Hauser,  
 J. E. Herr,  E. G. Hohenstein,  Z. C. Holden,  Kerwin Hui,  B. C. Huynh,  
 T.-C. Jagau,  Hyunjun Ji,  B. Kaduk,  K. Khistyaev,  Jaehoon Kim,  
 P. Klunzinger,  K. Koh,  D. Kosenkov,  L. Koulias,  T. Kowalczyk,  
 C. M. Krauter,  A. Kunitsa,  Ka Un Lao,  A. Laurent,  K. V. Lawler,  
 Joonho Lee,  D. Lefrancois,  S. Lehtola,  D. S. Levine,  Yi-Pei Li,  
 You-Sheng Lin,  Fenglai Liu,  E. Livshits,  A. Luenser,  P. Manohar,  
 E. Mansoor,  S. F. Manzer,  Shan-Ping Mao,  Yuezhi Mao,  N. Mardirossian,  
 A. V. Marenich,  T. Markovich,  L. A. Martinez-Martinez,  S. A. Maurer,  
 N. J. Mayhall,  S. C. McKenzie,  J.-M. Mewes,  A. F. Morrison,  
 J. W. Mullinax,  K. Nanda,  T. S. Nguyen-Beck,  R. Olivares-Amaya,  
 J. A. Parkhill,  T. M. Perrine,  F. Plasser,  P. Pokhilko,  S. Prager,  
 A. Prociuk,  E. Ramos,  D. R. Rehn,  F. Rob,  M. Schneider,  N. Sergueev,  
 S. M. Sharada,  S. Sharma,  D. W. Small,  T. Stauch,  T. Stein,  
 Yu-Chuan Su,  A. J. W. Thom,  A. Tkatchenko,  T. Tsuchimochi,  N. M. Tubman,  
 L. Vogt,  M. L. Vidal,  O. Vydrov,  M. A. Watson,  J. Wenzel,  
 M. de Wergifosse,  T. A. Wesolowski,  A. White,  J. Witte,  A. Yamada,  
 Jun Yang,  K. Yao,  S. Yeganeh,  S. R. Yost,  Zhi-Qiang You,  A. Zech,  
 Igor Ying Zhang,  Xing Zhang,  Yan Zhao,  Ying Zhu,  B. R. Brooks,  
 G. K. L. Chan,  C. J. Cramer,  M. S. Gordon,  W. J. Hehre,  A. Klamt,  
 M. W. Schmidt,  C. D. Sherrill,  D. G. Truhlar,  A. Aspuru-Guzik,  R. Baer,  
 A. T. Bell,  N. A. Besley,  Jeng-Da Chai,  A. E. DePrince, III,  
 R. A. DiStasio Jr.,  A. Dreuw,  B. D. Dunietz,  T. R. Furlani,  
 Chao-Ping Hsu,  Yousung Jung,  Jing Kong,  D. S. Lambrecht,  WanZhen Liang,  
 C. Ochsenfeld,  V. A. Rassolov,  L. V. Slipchenko,  J. E. Subotnik,  
 T. Van Voorhis,  J. M. Herbert,  A. I. Krylov,  P. M. W. Gill,  M. Head-Gordon

 Contributors to earlier versions of Q-Chem not listed above: 
 R. D. Adamson,  B. Austin,  J. Baker,  G. J. O. Beran,  K. Brandhorst,  
 S. T. Brown,  E. F. C. Byrd,  A. K. Chakraborty,  C.-L. Cheng,  
 Siu Hung Chien,  D. M. Chipman,  D. L. Crittenden,  H. Dachsel,  
 R. J. Doerksen,  A. D. Dutoi,  L. Fusti-Molnar,  W. A. Goddard III,  
 A. Golubeva-Zadorozhnaya,  S. R. Gwaltney,  G. Hawkins,  A. Heyden,  
 S. Hirata,  G. Kedziora,  F. J. Keil,  C. Kelley,  Jihan Kim,  R. A. King,  
 R. Z. Khaliullin,  P. P. Korambath,  W. Kurlancheek,  A. M. Lee,  M. S. Lee,  
 S. V. Levchenko,  Ching Yeh Lin,  D. Liotard,  R. C. Lochan,  I. Lotan,  
 P. E. Maslen,  N. Nair,  D. P. O'Neill,  D. Neuhauser,  E. Neuscamman,  
 C. M. Oana,  R. Olson,  B. Peters,  R. Peverati,  P. A. Pieniazek,  
 Y. M. Rhee,  J. Ritchie,  M. A. Rohrdanz,  E. Rosta,  N. J. Russ,  
 H. F. Schaefer III,  N. E. Schultz,  N. Shenvi,  A. C. Simmonett,  A. Sodt,  
 D. Stuck,  K. S. Thanthiriwatte,  V. Vanovschi,  Tao Wang,  A. Warshel,  
 C. F. Williams,  Q. Wu,  X. Xu,  W. Zhang

 Please cite Q-Chem as follows:
 Y. Shao et al., Mol. Phys. 113, 184-215 (2015)
 DOI: 10.1080/00268976.2014.952696

 Q-Chem 5.1.1 for Intel X86 EM64T Linux

 Parts of Q-Chem use Armadillo 8.300.2 (Tropical Shenanigans).
 http://arma.sourceforge.net/

 Q-Chem begins on Wed Oct 21 03:33:49 2020  

Host: n0081.mhg0
0

     Scratch files written to /local/scratch/users/yhljason/HCCF_XYGJOS_aug-cc-pcVTZ.inp20201021032855//
The previous job contains 0 fragments, simply inherited here
Input Ideriv = 2
Curr. Ideriv = -1
Max.  Ideriv = 2

Checking the input file for inconsistencies... 	...done.

--------------------------------------------------------------
User input:
--------------------------------------------------------------
$molecule
read
$end

$rem

jobtype sp
exchange XYGJOS
xc_grid 000099000590
basis aug-cc-pcVTZ
aux_basis rimp2-aug-cc-pVTZ
max_scf_cycles 200
thresh 14
scf_convergence 8
mem_total 128000
cc_memory 96000
cc_backend xm
mem_static 1500
symmetry false
sym_ignore true
scf_guess read
unrestricted false
scf_algorithm gdm
n_frozen_core 0
$end

$multipole_field
YY -0.0001
$end


--------------------------------------------------------------
 ----------------------------------------------------------------
             Standard Nuclear Orientation (Angstroms)
    I     Atom           X                Y                Z
 ----------------------------------------------------------------
    1      C       0.0000000000     0.0000000000    -0.0942000000
    2      C       0.0000000000     0.0000000000    -1.2922000000
    3      F       0.0000000000     0.0000000000     1.1848000000
    4      H       0.0000000000     0.0000000000    -2.3452000000
 ----------------------------------------------------------------
 Nuclear Repulsion Energy =    55.5552441247 hartrees
 There are       11 alpha and       11 beta electrons
 Requested basis set is aug-cc-pCVTZ
 There are 66 shells and 200 basis functions

 Total QAlloc Memory Limit 128000 MB
 Mega-Array Size      1467 MB
 MEM_STATIC part      1500 MB

                       Distance Matrix (Angstroms)
             C (  1)   C (  2)   F (  3)
   C (  2)  1.198000
   F (  3)  1.279000  2.477000
   H (  4)  2.251000  1.053000  3.530000
 
 Applying Cartesian multipole field
    Component          Value
    ---------          -----
     (0,2,0)       -1.00000E-04
 Requested basis set is rimp2-aug-cc-pVTZ
 There are 98 shells and 364 basis functions
 A cutoff of  1.0D-14 yielded   2127 shell pairs
 There are     19759 function pairs (     26772 Cartesian)
 
 -------------------------------------------------------
 OpenMP Integral Computing Module                       
 Release: version 1.0, May 2013, Q-Chem Inc. Pittsburgh 
 -------------------------------------------------------
 Integral Job Info:
 Integral job number is                      11
 Integral operator is                         1
 short-range coefficients                     0
 long-range coefficients              100000000
 Omega coefficients                           0
 if combine SR and LR in K                    0
 Integral screening is                        0
 Integral computing path is                   2
 max size of driver memory is            800000
 size of driver memory is                776718
 size of scratch memory is              6691272
 max col of scratch BK array              10000
 max len of scratch array in speh3          662
 max len of scratch index in speh4           32
 max int batch size is                      520
 min int batch size is                       52
 fixed nKL is                                52
 max L of basis functions is                  3
 order of int derivative is                   0
 number of shells is                         66
 number of basis is                         232
 number of cartesian basis is               232
 number of contracted shell pairs          2127
 number of primitive shell pairs           5689
 maxK2 (contraction) of shell pair           64
 max number of K2 of shell pair               1
 max number of CS2 of shell pair            321
 max number of PS2 of shell pair            704
 mem total for path MDJ                  600000
 -------------------------------------------------------
 Smallest overlap matrix eigenvalue = 1.17E-05
 Guess MOs from SCF MO coefficient file
 Reading MOs from coefficient file
 Reading MOs from coefficient file
 A restricted hybrid HF-DFT SCF calculation will be
 performed using Geometric Direct Minimization
 Exchange:     0.2000 Hartree-Fock + 0.0800 Slater + 0.7200 B88
 Correlation:  0.1900 VWN1RPA + 0.8100 LYP
 Using Euler-Maclaurin-Lebedev (99,590) quadrature formula
 SCF converges when RMS gradient is below 1.0E-08
Using Q-Chem read-in guess as SCF_GUESS READ specified.

 using 8 threads for integral computing
 -------------------------------------------------------
 OpenMP Integral computing Module                
 Release: version 2.0, May 2017, Q-Chem Inc. Pleasanton 
 -------------------------------------------------------
TIMEINFO->: J/JK contribution 35.90 sec.
 -------------------------------------------------------
 OpenMP BLAS3 based DFT computing Module                
 Release: version 1.0, May 2013, Q-Chem Inc. Pittsburgh 
 -------------------------------------------------------
 ---------------------------------------
  Cycle       Energy        RMS Gradient
 ---------------------------------------
    1    -176.6186887484      6.91E-04 Normal BFGS step
TIMEINFO->: J/JK contribution 35.06 sec.
    2    -176.6186902403      2.22E-04 Normal BFGS step
TIMEINFO->: J/JK contribution 34.17 sec.
    3    -176.6186904770      1.50E-04 Normal BFGS step
TIMEINFO->: J/JK contribution 33.60 sec.
    4    -176.6186904919      1.45E-04 Normal BFGS step
TIMEINFO->: J/JK contribution 34.19 sec.
    5    -176.6186905330      2.96E-05 Normal BFGS step
TIMEINFO->: J/JK contribution 33.23 sec.
    6    -176.6186905410      1.27E-05 Normal BFGS step
TIMEINFO->: J/JK contribution 32.46 sec.
    7    -176.6186905415      1.16E-05 Normal BFGS step
TIMEINFO->: J/JK contribution 32.90 sec.
    8    -176.6186905422      2.60E-06 Normal BFGS step
TIMEINFO->: J/JK contribution 31.81 sec.
    9    -176.6186905422      5.53E-07 Normal BFGS step
TIMEINFO->: J/JK contribution 31.05 sec.
   10    -176.6186905422      2.98E-08 Normal BFGS step
TIMEINFO->: J/JK contribution 30.49 sec.
   11    -176.6186905422      4.03E-09 Convergence criterion met
 ---------------------------------------
 B3LYP orbitals are now ready for the XYGJ-OS calculation.
 XYGJ-OS energy = Exch (0.7731 HF  + 0.2269 Slater) + 
                  Corr (0.2754 LYP + 0.2309 VWN1RPA + 0.4364 OS-MP2)
 SCF time:  CPU 494.10 s  wall 62.26 s
 SCF   energy in the final basis set = -175.91178310
 Total energy in the final basis set = -175.91178310
 Entering Scaled Opposite Spin MP2
 NBasAux in rimp2.F =          364

 OS-MP2 job begins now...

 SOS scaling factor =  0.4
 Form (P|Q)**(-1/2)...
 
 Form (ia|P)...
 Form BiaQ = (ia|P)*(P|Q)**(-1/2)...
 Laplace quadrature loop begins
 Laplace point 1: correlation energy     =        -0.1655005718
 Laplace point 2: correlation energy     =        -0.1734526016
 Laplace point 3: correlation energy     =        -0.1983374588
 Laplace point 4: correlation energy     =        -0.1390364796
 Laplace point 5: correlation energy     =        -0.0497457348
[...]
  4.218   4.305   4.305   4.436   4.436   4.617   4.654   4.654
  4.865   5.399   5.399   5.415   6.317   6.317   6.397   6.661
  6.916   7.930   8.248   8.248   8.545   8.545   8.696   8.696
  8.838   8.838   9.125   9.125   9.192   9.372  14.997  14.997
 15.715  15.715  16.116  16.257  17.659  17.787  31.066  31.066
 32.627  34.913  40.357  40.357  40.447  40.447  40.459  40.459
 40.659  40.662  40.662  41.291  51.862  51.862  52.012  52.012
 52.130  79.694  79.694  80.250  80.250  80.579  81.609  84.502
 87.051 168.207 168.207 169.430 181.301
 --------------------------------------------------------------
 
          Ground-State Mulliken Net Atomic Charges

     Atom                 Charge (a.u.)
  ----------------------------------------
      1 C                     0.382796
      2 C                    -0.620903
      3 F                    -0.219981
      4 H                     0.458088
  ----------------------------------------
  Sum of atomic charges =    -0.000000

 -----------------------------------------------------------------
                    Cartesian Multipole Moments
 -----------------------------------------------------------------
    Charge (ESU x 10^10)
                -0.0000
    Dipole Moment (Debye)
         X      -0.0000      Y      -0.0000      Z      -0.6138
       Tot       0.6138
    Quadrupole Moments (Debye-Ang)
        XX     -17.1456     XY      -0.0000     YY     -17.1456
        XZ       0.0000     YZ       0.0000     ZZ     -13.2068
    Octopole Moments (Debye-Ang^2)
       XXX      -0.0000    XXY      -0.0000    XYY      -0.0000
       YYY      -0.0000    XXZ       5.0716    XYZ      -0.0000
       YYZ       5.0716    XZZ      -0.0000    YZZ      -0.0000
       ZZZ      -0.9175
    Hexadecapole Moments (Debye-Ang^3)
      XXXX     -18.2541   XXXY       0.0000   XXYY      -6.0847
      XYYY      -0.0000   YYYY     -18.2541   XXXZ       0.0000
      XXYZ       0.0000   XYYZ       0.0000   YYYZ       0.0000
      XXZZ     -26.3931   XYZZ       0.0000   YYZZ     -26.3931
      XZZZ       0.0000   YZZZ       0.0000   ZZZZ    -100.2823
 -----------------------------------------------------------------
Archival summary:
1\1\n0081.mhg0\SP\ProcedureUnspecified\BasisUnspecified\121\yhljason\WedOct2103:36:002020WedOct2103:36:002020\0\\#,ProcedureUnspecified,BasisUnspecified,\\0,1\C\C,1,1.198\H,2,1.053,1,180\F,1,1.279,2,180,3,0,0\\\@

 Total job time:  65.45s(wall), 516.76s(cpu) 
 Wed Oct 21 03:36:00 2020

        *************************************************************
        *                                                           *
        *  Thank you very much for using Q-Chem.  Have a nice day.  *
        *                                                           *
        *************************************************************


 
User input: 7 of 7 
 
Q-Chem Developer Version!
                  Welcome to Q-Chem
     A Quantum Leap Into The Future Of Chemistry


 Q-Chem 5.1, Q-Chem, Inc., Pleasanton, CA (2018)

 Yihan Shao,  Zhengting Gan,  E. Epifanovsky,  A. T. B. Gilbert,  M. Wormit,  
 J. Kussmann,  A. W. Lange,  A. Behn,  Jia Deng,  Xintian Feng,  D. Ghosh,  
 M. Goldey,  P. R. Horn,  L. D. Jacobson,  I. Kaliman,  T. Kus,  A. Landau,  
 Jie Liu,  E. I. Proynov,  R. M. Richard,  R. P. Steele,  E. J. Sundstrom,  
 H. L. Woodcock III,  P. M. Zimmerman,  D. Zuev,  B. Albrecht,  E. Alguire,  
 S. A. Baeppler,  D. Barton,  Z. Benda,  Y. A. Bernard,  E. J. Berquist,  
 K. B. Bravaya,  H. Burton,  D. Casanova,  Chun-Min Chang,  Yunqing Chen,  
 A. Chien,  K. D. Closser,  M. P. Coons,  S. Coriani,  S. Dasgupta,  
 A. L. Dempwolff,  M. Diedenhofen,  Hainam Do,  R. G. Edgar,  Po-Tung Fang,  
 S. Faraji,  S. Fatehi,  Qingguo Feng,  K. D. Fenk,  J. Fosso-Tande,  
 Qinghui Ge,  A. Ghysels,  G. Gidofalvi,  J. Gomes,  J. Gonthier,  A. Gunina,  
 D. Hait,  M. W. D. Hanson-Heine,  P. H. P. Harbach,  A. W. Hauser,  
 J. E. Herr,  E. G. Hohenstein,  Z. C. Holden,  Kerwin Hui,  B. C. Huynh,  
 T.-C. Jagau,  Hyunjun Ji,  B. Kaduk,  K. Khistyaev,  Jaehoon Kim,  
 P. Klunzinger,  K. Koh,  D. Kosenkov,  L. Koulias,  T. Kowalczyk,  
 C. M. Krauter,  A. Kunitsa,  Ka Un Lao,  A. Laurent,  K. V. Lawler,  
 Joonho Lee,  D. Lefrancois,  S. Lehtola,  D. S. Levine,  Yi-Pei Li,  
 You-Sheng Lin,  Fenglai Liu,  E. Livshits,  A. Luenser,  P. Manohar,  
 E. Mansoor,  S. F. Manzer,  Shan-Ping Mao,  Yuezhi Mao,  N. Mardirossian,  
 A. V. Marenich,  T. Markovich,  L. A. Martinez-Martinez,  S. A. Maurer,  
 N. J. Mayhall,  S. C. McKenzie,  J.-M. Mewes,  A. F. Morrison,  
 J. W. Mullinax,  K. Nanda,  T. S. Nguyen-Beck,  R. Olivares-Amaya,  
 J. A. Parkhill,  T. M. Perrine,  F. Plasser,  P. Pokhilko,  S. Prager,  
 A. Prociuk,  E. Ramos,  D. R. Rehn,  F. Rob,  M. Schneider,  N. Sergueev,  
 S. M. Sharada,  S. Sharma,  D. W. Small,  T. Stauch,  T. Stein,  
 Yu-Chuan Su,  A. J. W. Thom,  A. Tkatchenko,  T. Tsuchimochi,  N. M. Tubman,  
 L. Vogt,  M. L. Vidal,  O. Vydrov,  M. A. Watson,  J. Wenzel,  
 M. de Wergifosse,  T. A. Wesolowski,  A. White,  J. Witte,  A. Yamada,  
 Jun Yang,  K. Yao,  S. Yeganeh,  S. R. Yost,  Zhi-Qiang You,  A. Zech,  
 Igor Ying Zhang,  Xing Zhang,  Yan Zhao,  Ying Zhu,  B. R. Brooks,  
 G. K. L. Chan,  C. J. Cramer,  M. S. Gordon,  W. J. Hehre,  A. Klamt,  
 M. W. Schmidt,  C. D. Sherrill,  D. G. Truhlar,  A. Aspuru-Guzik,  R. Baer,  
 A. T. Bell,  N. A. Besley,  Jeng-Da Chai,  A. E. DePrince, III,  
 R. A. DiStasio Jr.,  A. Dreuw,  B. D. Dunietz,  T. R. Furlani,  
 Chao-Ping Hsu,  Yousung Jung,  Jing Kong,  D. S. Lambrecht,  WanZhen Liang,  
 C. Ochsenfeld,  V. A. Rassolov,  L. V. Slipchenko,  J. E. Subotnik,  
 T. Van Voorhis,  J. M. Herbert,  A. I. Krylov,  P. M. W. Gill,  M. Head-Gordon

 Contributors to earlier versions of Q-Chem not listed above: 
 R. D. Adamson,  B. Austin,  J. Baker,  G. J. O. Beran,  K. Brandhorst,  
 S. T. Brown,  E. F. C. Byrd,  A. K. Chakraborty,  C.-L. Cheng,  
 Siu Hung Chien,  D. M. Chipman,  D. L. Crittenden,  H. Dachsel,  
 R. J. Doerksen,  A. D. Dutoi,  L. Fusti-Molnar,  W. A. Goddard III,  
 A. Golubeva-Zadorozhnaya,  S. R. Gwaltney,  G. Hawkins,  A. Heyden,  
 S. Hirata,  G. Kedziora,  F. J. Keil,  C. Kelley,  Jihan Kim,  R. A. King,  
 R. Z. Khaliullin,  P. P. Korambath,  W. Kurlancheek,  A. M. Lee,  M. S. Lee,  
 S. V. Levchenko,  Ching Yeh Lin,  D. Liotard,  R. C. Lochan,  I. Lotan,  
 P. E. Maslen,  N. Nair,  D. P. O'Neill,  D. Neuhauser,  E. Neuscamman,  
 C. M. Oana,  R. Olson,  B. Peters,  R. Peverati,  P. A. Pieniazek,  
 Y. M. Rhee,  J. Ritchie,  M. A. Rohrdanz,  E. Rosta,  N. J. Russ,  
 H. F. Schaefer III,  N. E. Schultz,  N. Shenvi,  A. C. Simmonett,  A. Sodt,  
 D. Stuck,  K. S. Thanthiriwatte,  V. Vanovschi,  Tao Wang,  A. Warshel,  
 C. F. Williams,  Q. Wu,  X. Xu,  W. Zhang

 Please cite Q-Chem as follows:
 Y. Shao et al., Mol. Phys. 113, 184-215 (2015)
 DOI: 10.1080/00268976.2014.952696

 Q-Chem 5.1.1 for Intel X86 EM64T Linux

 Parts of Q-Chem use Armadillo 8.300.2 (Tropical Shenanigans).
 http://arma.sourceforge.net/

 Q-Chem begins on Wed Oct 21 03:36:01 2020  

Host: n0081.mhg0
0

     Scratch files written to /local/scratch/users/yhljason/HCCF_XYGJOS_aug-cc-pcVTZ.inp20201021032855//
The previous job contains 0 fragments, simply inherited here
Input Ideriv = 2
Curr. Ideriv = -1
Max.  Ideriv = 2

Checking the input file for inconsistencies... 	...done.

--------------------------------------------------------------
User input:
--------------------------------------------------------------
$molecule
read
$end

$rem

jobtype sp
exchange XYGJOS
xc_grid 000099000590
basis aug-cc-pcVTZ
aux_basis rimp2-aug-cc-pVTZ
max_scf_cycles 200
thresh 14
scf_convergence 8
mem_total 128000
cc_memory 96000
cc_backend xm
mem_static 1500
symmetry false
sym_ignore true
scf_guess read
unrestricted false
scf_algorithm gdm
n_frozen_core 0
$end

$multipole_field
ZZ -0.0001
$end

--------------------------------------------------------------
 ----------------------------------------------------------------
             Standard Nuclear Orientation (Angstroms)
    I     Atom           X                Y                Z
 ----------------------------------------------------------------
    1      C       0.0000000000     0.0000000000    -0.0942000000
    2      C       0.0000000000     0.0000000000    -1.2922000000
    3      F       0.0000000000     0.0000000000     1.1848000000
    4      H       0.0000000000     0.0000000000    -2.3452000000
 ----------------------------------------------------------------
 Nuclear Repulsion Energy =    55.5552441247 hartrees
 There are       11 alpha and       11 beta electrons
 Requested basis set is aug-cc-pCVTZ
 There are 66 shells and 200 basis functions

 Total QAlloc Memory Limit 128000 MB
 Mega-Array Size      1467 MB
 MEM_STATIC part      1500 MB

                       Distance Matrix (Angstroms)
             C (  1)   C (  2)   F (  3)
   C (  2)  1.198000
   F (  3)  1.279000  2.477000
   H (  4)  2.251000  1.053000  3.530000
 
 Applying Cartesian multipole field
    Component          Value
    ---------          -----
     (0,0,2)       -1.00000E-04
 Nucleus-field energy     =    -0.0100724202 hartrees
 Requested basis set is rimp2-aug-cc-pVTZ
 There are 98 shells and 364 basis functions
 A cutoff of  1.0D-14 yielded   2127 shell pairs
 There are     19759 function pairs (     26772 Cartesian)
 
 -------------------------------------------------------
 OpenMP Integral Computing Module                       
 Release: version 1.0, May 2013, Q-Chem Inc. Pittsburgh 
 -------------------------------------------------------
 Integral Job Info:
 Integral job number is                      11
 Integral operator is                         1
 short-range coefficients                     0
 long-range coefficients              100000000
 Omega coefficients                           0
 if combine SR and LR in K                    0
 Integral screening is                        0
 Integral computing path is                   2
 max size of driver memory is            800000
 size of driver memory is                776718
 size of scratch memory is              6691272
 max col of scratch BK array              10000
 max len of scratch array in speh3          662
 max len of scratch index in speh4           32
 max int batch size is                      520
 min int batch size is                       52
 fixed nKL is                                52
 max L of basis functions is                  3
 order of int derivative is                   0
 number of shells is                         66
 number of basis is                         232
 number of cartesian basis is               232
 number of contracted shell pairs          2127
 number of primitive shell pairs           5689
 maxK2 (contraction) of shell pair           64
 max number of K2 of shell pair               1
 max number of CS2 of shell pair            321
 max number of PS2 of shell pair            704
 mem total for path MDJ                  600000
 -------------------------------------------------------
 Smallest overlap matrix eigenvalue = 1.17E-05
 Guess MOs from SCF MO coefficient file
 Reading MOs from coefficient file
 Reading MOs from coefficient file
 A restricted hybrid HF-DFT SCF calculation will be
 performed using Geometric Direct Minimization
 Exchange:     0.2000 Hartree-Fock + 0.0800 Slater + 0.7200 B88
 Correlation:  0.1900 VWN1RPA + 0.8100 LYP
 Using Euler-Maclaurin-Lebedev (99,590) quadrature formula
 SCF converges when RMS gradient is below 1.0E-08
Using Q-Chem read-in guess as SCF_GUESS READ specified.

 using 8 threads for integral computing
 -------------------------------------------------------
 OpenMP Integral computing Module                
 Release: version 2.0, May 2017, Q-Chem Inc. Pleasanton 
 -------------------------------------------------------
TIMEINFO->: J/JK contribution 34.96 sec.
 -------------------------------------------------------
 OpenMP BLAS3 based DFT computing Module                
 Release: version 1.0, May 2013, Q-Chem Inc. Pittsburgh 
 -------------------------------------------------------
 ---------------------------------------
  Cycle       Energy        RMS Gradient
 ---------------------------------------
    1    -176.6189803687      1.60E-03 Normal BFGS step
TIMEINFO->: J/JK contribution 34.65 sec.
    2    -176.6189820931      2.37E-03 Normal BFGS step
TIMEINFO->: J/JK contribution 33.95 sec.
    3    -176.6189884672      5.99E-04 Normal BFGS step
TIMEINFO->: J/JK contribution 34.29 sec.
    4    -176.6189895033      3.45E-04 Normal BFGS step
TIMEINFO->: J/JK contribution 33.56 sec.
    5    -176.6189904438      9.41E-05 Normal BFGS step
TIMEINFO->: J/JK contribution 32.98 sec.
    6    -176.6189904604      7.70E-05 Normal BFGS step
TIMEINFO->: J/JK contribution 32.92 sec.
    7    -176.6189905349      1.33E-05 Normal BFGS step
TIMEINFO->: J/JK contribution 32.63 sec.
    8    -176.6189905365      4.45E-06 Normal BFGS step
TIMEINFO->: J/JK contribution 32.75 sec.
    9    -176.6189905369      2.99E-07 Normal BFGS step
TIMEINFO->: J/JK contribution 31.79 sec.
   10    -176.6189905369      5.58E-08 Normal BFGS step
TIMEINFO->: J/JK contribution 31.11 sec.
   GDM::WARNING energy changes are now smaller than effective accuracy.
   GDM::        calculation will continue, but THRESH should be increased
   GDM::        or SCF_CONVERGENCE decreased.
   GDM::        effective_thresh =   1.985650491687779E-009
   11    -176.6189905369      2.44E-09 Convergence criterion met
 ---------------------------------------
 B3LYP orbitals are now ready for the XYGJ-OS calculation.
 XYGJ-OS energy = Exch (0.7731 HF  + 0.2269 Slater) + 
                  Corr (0.2754 LYP + 0.2309 VWN1RPA + 0.4364 OS-MP2)
 SCF time:  CPU 501.70 s  wall 63.16 s
 SCF   energy in the final basis set = -175.91211201
 Total energy in the final basis set = -175.91211201
 Entering Scaled Opposite Spin MP2
 NBasAux in rimp2.F =          364

 OS-MP2 job begins now...

 SOS scaling factor =  0.4
 Form (P|Q)**(-1/2)...
 
 Form (ia|P)...
 Form BiaQ = (ia|P)*(P|Q)**(-1/2)...
 Laplace quadrature loop begins
 Laplace point 1: correlation energy     =        -0.1654994507
 Laplace point 2: correlation energy     =        -0.1734486929
 Laplace point 3: correlation energy     =        -0.1983289606
 Laplace point 4: correlation energy     =        -0.1390186720
 Laplace point 5: correlation energy     =        -0.0497222526
 Laplace point 6: correlation energy     =        -0.0069997355
 Laplace point 7: correlation energy     =        -0.0001207738
 
 singles contribution not yet available for XYGJ-OS 
 Total OS-MP2 correlation energy         =        -0.7331385382

 Total XYGJ-OS energy                    =      -176.2320536696
 
 ------------------------------------------------------------------------------
                     SOSMP2        : Timing summary (seconds)
 ------------------------------------------------------------------------------
     job step          cpu (% of tot)      sys (% of tot)     wall (% of tot)
 ------------------------------------------------------------------------------
  Form inv (P|Q)    0.9712E+00 ( 7.1)   0.4000E-05 ( 6.1)   0.1223E+00 ( 6.1)
  Form (ia|P)       0.9524E+01 (69.9)   0.4300E-04 (65.2)   0.1199E+01 (60.1)
  Form  BiaQ        0.8161E+00 ( 6.0)   0.5000E-05 ( 7.6)   0.1024E+00 ( 5.1)
  LP orbitals       0.3312E+00 ( 2.4)   0.4000E-05 ( 6.1)   0.9263E-01 ( 4.6)
  Form  X(PQ)       0.1448E+01 (10.6)   0.7000E-05 (10.6)   0.3662E+00 (18.4)
  Increment EMP2    0.2838E+00 ( 2.1)   0.2000E-05 ( 3.0)   0.7899E-01 ( 4.0)
 ------------------------------------------------------------------------------
   Grand Totals     0.1362E+02          0.6600E-04          0.1995E+01
 ------------------------------------------------------------------------------
 
 --------------------------------------------------------------
 
                    Orbital Energies (a.u.)
 --------------------------------------------------------------
 
 Alpha MOs
 -- Occupied --
-24.770 -10.275 -10.190  -1.309  -0.777  -0.645  -0.540  -0.531
 -0.531  -0.297  -0.297
 -- Virtual --
 -0.013   0.019   0.030   0.030   0.052   0.052   0.061   0.067
  0.096   0.096   0.117   0.151   0.177   0.195   0.195   0.196
  0.196   0.212   0.274   0.274   0.300   0.305   0.305   0.324
  0.324   0.328   0.373   0.373   0.387   0.400   0.499   0.499
  0.499   0.645   0.703   0.703   0.734   0.734   0.757   0.788
  0.811   0.811   0.813   0.813   0.857   0.867   0.867   0.870
  0.870   0.897   0.897   0.973   1.017   1.017   1.039   1.056
  1.056   1.120   1.120   1.126   1.126   1.139   1.242   1.260
  1.260   1.368   1.425   1.425   1.525   1.525   1.659   1.659
  1.664   1.783   1.785   1.785   1.883   1.982   1.982   2.064
  2.404   2.404   2.502   2.502   2.507   2.525   2.662   2.662
  2.696   2.696   2.838   2.838   2.911   2.958   2.958   2.977
  2.977   3.034   3.034   3.039   3.078   3.093   3.093   3.232
  3.232   3.354   3.354   3.369   3.369   3.454   3.475   3.475
  3.590   3.590   3.618   3.792   3.792   3.932   4.173   4.220
  4.220   4.307   4.307   4.439   4.439   4.620   4.657   4.657
  4.867   5.401   5.401   5.418   6.319   6.319   6.399   6.663
  6.918   7.932   8.250   8.250   8.547   8.547   8.698   8.698
  8.840   8.840   9.127   9.127   9.194   9.374  14.998  14.998
 15.717  15.717  16.118  16.259  17.661  17.789  31.067  31.067
 32.629  34.915  40.359  40.359  40.449  40.449  40.460  40.460
 40.661  40.663  40.663  41.293  51.863  51.863  52.014  52.014
 52.132  79.696  79.696  80.252  80.252  80.581  81.611  84.504
 87.053 168.208 168.208 169.432 181.303
 --------------------------------------------------------------
 
          Ground-State Mulliken Net Atomic Charges

     Atom                 Charge (a.u.)
  ----------------------------------------
      1 C                     0.376228
      2 C                    -0.617788
      3 F                    -0.218519
      4 H                     0.460078
  ----------------------------------------
  Sum of atomic charges =    -0.000000

 -----------------------------------------------------------------
                    Cartesian Multipole Moments
 -----------------------------------------------------------------
    Charge (ESU x 10^10)
                -0.0000
    Dipole Moment (Debye)
         X      -0.0000      Y       0.0000      Z      -0.6479
       Tot       0.6479
    Quadrupole Moments (Debye-Ang)
        XX     -17.1450     XY      -0.0000     YY     -17.1450
        XZ       0.0000     YZ       0.0000     ZZ     -13.0703
    Octopole Moments (Debye-Ang^2)
       XXX      -0.0000    XXY      -0.0000    XYY      -0.0000
       YYY      -0.0000    XXZ       5.0484    XYZ       0.0000
       YYZ       5.0484    XZZ      -0.0000    YZZ      -0.0000
       ZZZ      -1.2237
    Hexadecapole Moments (Debye-Ang^3)
      XXXX     -18.2484   XXXY      -0.0000   XXYY      -6.0828
      XYYY      -0.0000   YYYY     -18.2484   XXXZ       0.0000
      XXYZ       0.0000   XYYZ       0.0000   YYYZ       0.0000
      XXZZ     -26.3114   XYZZ       0.0000   YYZZ     -26.3114
      XZZZ       0.0000   YZZZ       0.0000   ZZZZ     -99.1492
 -----------------------------------------------------------------
Archival summary:
1\1\n0081.mhg0\SP\ProcedureUnspecified\BasisUnspecified\121\yhljason\WedOct2103:37:072020WedOct2103:37:072020\0\\#,ProcedureUnspecified,BasisUnspecified,\\0,1\C\C,1,1.198\H,2,1.053,1,180\F,1,1.279,2,180,3,0,0\\\@

 Total job time:  66.23s(wall), 522.95s(cpu) 
 Wed Oct 21 03:37:07 2020

        *************************************************************
        *                                                           *
        *  Thank you very much for using Q-Chem.  Have a nice day.  *
        *                                                           *
        *************************************************************


