Q-Chem Developer Version!
                  Welcome to Q-Chem
     A Quantum Leap Into The Future Of Chemistry


 Q-Chem 5.1, Q-Chem, Inc., Pleasanton, CA (2018)

 Yihan Shao,  Zhengting Gan,  E. Epifanovsky,  A. T. B. Gilbert,  M. Wormit,  
 J. Kussmann,  A. W. Lange,  A. Behn,  Jia Deng,  Xintian Feng,  D. Ghosh,  
 M. Goldey,  P. R. Horn,  L. D. Jacobson,  I. Kaliman,  T. Kus,  A. Landau,  
 Jie Liu,  E. I. Proynov,  R. M. Richard,  R. P. Steele,  E. J. Sundstrom,  
 H. L. Woodcock III,  P. M. Zimmerman,  D. Zuev,  B. Albrecht,  E. Alguire,  
 S. A. Baeppler,  D. Barton,  Z. Benda,  Y. A. Bernard,  E. J. Berquist,  
 K. B. Bravaya,  H. Burton,  D. Casanova,  Chun-Min Chang,  Yunqing Chen,  
 A. Chien,  K. D. Closser,  M. P. Coons,  S. Coriani,  S. Dasgupta,  
 A. L. Dempwolff,  M. Diedenhofen,  Hainam Do,  R. G. Edgar,  Po-Tung Fang,  
 S. Faraji,  S. Fatehi,  Qingguo Feng,  K. D. Fenk,  J. Fosso-Tande,  
 Qinghui Ge,  A. Ghysels,  G. Gidofalvi,  J. Gomes,  J. Gonthier,  A. Gunina,  
 D. Hait,  M. W. D. Hanson-Heine,  P. H. P. Harbach,  A. W. Hauser,  
 J. E. Herr,  E. G. Hohenstein,  Z. C. Holden,  Kerwin Hui,  B. C. Huynh,  
 T.-C. Jagau,  Hyunjun Ji,  B. Kaduk,  K. Khistyaev,  Jaehoon Kim,  
 P. Klunzinger,  K. Koh,  D. Kosenkov,  L. Koulias,  T. Kowalczyk,  
 C. M. Krauter,  A. Kunitsa,  Ka Un Lao,  A. Laurent,  K. V. Lawler,  
 Joonho Lee,  D. Lefrancois,  S. Lehtola,  D. S. Levine,  Yi-Pei Li,  
 You-Sheng Lin,  Fenglai Liu,  E. Livshits,  A. Luenser,  P. Manohar,  
 E. Mansoor,  S. F. Manzer,  Shan-Ping Mao,  Yuezhi Mao,  N. Mardirossian,  
 A. V. Marenich,  T. Markovich,  L. A. Martinez-Martinez,  S. A. Maurer,  
 N. J. Mayhall,  S. C. McKenzie,  J.-M. Mewes,  A. F. Morrison,  
 J. W. Mullinax,  K. Nanda,  T. S. Nguyen-Beck,  R. Olivares-Amaya,  
 J. A. Parkhill,  T. M. Perrine,  F. Plasser,  P. Pokhilko,  S. Prager,  
 A. Prociuk,  E. Ramos,  D. R. Rehn,  F. Rob,  M. Schneider,  N. Sergueev,  
 S. M. Sharada,  S. Sharma,  D. W. Small,  T. Stauch,  T. Stein,  
 Yu-Chuan Su,  A. J. W. Thom,  A. Tkatchenko,  T. Tsuchimochi,  N. M. Tubman,  
 L. Vogt,  M. L. Vidal,  O. Vydrov,  M. A. Watson,  J. Wenzel,  
 M. de Wergifosse,  T. A. Wesolowski,  A. White,  J. Witte,  A. Yamada,  
 Jun Yang,  K. Yao,  S. Yeganeh,  S. R. Yost,  Zhi-Qiang You,  A. Zech,  
 Igor Ying Zhang,  Xing Zhang,  Yan Zhao,  Ying Zhu,  B. R. Brooks,  
 G. K. L. Chan,  C. J. Cramer,  M. S. Gordon,  W. J. Hehre,  A. Klamt,  
 M. W. Schmidt,  C. D. Sherrill,  D. G. Truhlar,  A. Aspuru-Guzik,  R. Baer,  
 A. T. Bell,  N. A. Besley,  Jeng-Da Chai,  A. E. DePrince, III,  
 R. A. DiStasio Jr.,  A. Dreuw,  B. D. Dunietz,  T. R. Furlani,  
 Chao-Ping Hsu,  Yousung Jung,  Jing Kong,  D. S. Lambrecht,  WanZhen Liang,  
 C. Ochsenfeld,  V. A. Rassolov,  L. V. Slipchenko,  J. E. Subotnik,  
 T. Van Voorhis,  J. M. Herbert,  A. I. Krylov,  P. M. W. Gill,  M. Head-Gordon

 Contributors to earlier versions of Q-Chem not listed above: 
 R. D. Adamson,  B. Austin,  J. Baker,  G. J. O. Beran,  K. Brandhorst,  
 S. T. Brown,  E. F. C. Byrd,  A. K. Chakraborty,  C.-L. Cheng,  
 Siu Hung Chien,  D. M. Chipman,  D. L. Crittenden,  H. Dachsel,  
 R. J. Doerksen,  A. D. Dutoi,  L. Fusti-Molnar,  W. A. Goddard III,  
 A. Golubeva-Zadorozhnaya,  S. R. Gwaltney,  G. Hawkins,  A. Heyden,  
 S. Hirata,  G. Kedziora,  F. J. Keil,  C. Kelley,  Jihan Kim,  R. A. King,  
 R. Z. Khaliullin,  P. P. Korambath,  W. Kurlancheek,  A. M. Lee,  M. S. Lee,  
 S. V. Levchenko,  Ching Yeh Lin,  D. Liotard,  R. C. Lochan,  I. Lotan,  
 P. E. Maslen,  N. Nair,  D. P. O'Neill,  D. Neuhauser,  E. Neuscamman,  
 C. M. Oana,  R. Olson,  B. Peters,  R. Peverati,  P. A. Pieniazek,  
 Y. M. Rhee,  J. Ritchie,  M. A. Rohrdanz,  E. Rosta,  N. J. Russ,  
 H. F. Schaefer III,  N. E. Schultz,  N. Shenvi,  A. C. Simmonett,  A. Sodt,  
 D. Stuck,  K. S. Thanthiriwatte,  V. Vanovschi,  Tao Wang,  A. Warshel,  
 C. F. Williams,  Q. Wu,  X. Xu,  W. Zhang

 Please cite Q-Chem as follows:
 Y. Shao et al., Mol. Phys. 113, 184-215 (2015)
 DOI: 10.1080/00268976.2014.952696

 Q-Chem 5.1.1 for Intel X86 EM64T Linux

 Parts of Q-Chem use Armadillo 8.300.2 (Tropical Shenanigans).
 http://arma.sourceforge.net/

 Q-Chem begins on Wed Oct 21 03:29:21 2020  

Host: n0090.mhg0
0

     Scratch files written to /local/scratch/users/yhljason/NP_XYGJOS_aug-cc-pcVTZ.inp20201021032920//
Input Ideriv = 2
Curr. Ideriv = -1
Max.  Ideriv = 2

Checking the input file for inconsistencies... 	...done.

--------------------------------------------------------------
User input:
--------------------------------------------------------------
$molecule
0 1
N1	0.0000	0.0000	1.4909
P2	0.0000	0.0000	0.0000
$end

$rem
jobtype sp
exchange XYGJOS
xc_grid 000099000590
basis aug-cc-pcVTZ
aux_basis rimp2-aug-cc-pVTZ
max_scf_cycles 200
thresh 14
scf_convergence 8
scf_algorithm gdm
symmetry false
sym_ignore true
unrestricted false
gen_scfman false
internal_stability_iter 15
internal_stability_davidson_iter 200
mem_total 128000
cc_memory 96000
cc_backend xm
mem_static 1500
n_frozen_core 0
$end



--------------------------------------------------------------
 ----------------------------------------------------------------
             Standard Nuclear Orientation (Angstroms)
    I     Atom           X                Y                Z
 ----------------------------------------------------------------
    1      N       0.0000000000     0.0000000000     1.4909000000
    2      P       0.0000000000     0.0000000000     0.0000000000
 ----------------------------------------------------------------
 Nuclear Repulsion Energy =    37.2685003246 hartrees
 There are       11 alpha and       11 beta electrons
 Requested basis set is aug-cc-pCVTZ
 There are 42 shells and 134 basis functions

 Total QAlloc Memory Limit 128000 MB
 Mega-Array Size      1467 MB
 MEM_STATIC part      1500 MB

                       Distance Matrix (Angstroms)
             N (  1)
   P (  2)  1.490900
 
 Requested basis set is rimp2-aug-cc-pVTZ
 There are 65 shells and 253 basis functions
 A cutoff of  1.0D-14 yielded    891 shell pairs
 There are      9167 function pairs (     12817 Cartesian)
 
 -------------------------------------------------------
 OpenMP Integral Computing Module                       
 Release: version 1.0, May 2013, Q-Chem Inc. Pittsburgh 
 -------------------------------------------------------
 Integral Job Info:
 Integral job number is                      11
 Integral operator is                         1
 short-range coefficients                     0
 long-range coefficients              100000000
 Omega coefficients                           0
 if combine SR and LR in K                    0
 Integral screening is                        0
 Integral computing path is                   2
 max size of driver memory is            800000
 size of driver memory is                776718
 size of scratch memory is             29531563
 max col of scratch BK array              10000
 max len of scratch array in speh3          662
 max len of scratch index in speh4           32
 max int batch size is                      520
 min int batch size is                       52
 fixed nKL is                                31
 max L of basis functions is                  3
 order of int derivative is                   0
 number of shells is                         42
 number of basis is                         158
 number of cartesian basis is               158
 number of contracted shell pairs           891
 number of primitive shell pairs           5125
 maxK2 (contraction) of shell pair          169
 max number of K2 of shell pair               1
 max number of CS2 of shell pair             97
 max number of PS2 of shell pair           1014
 mem total for path MDJ                  562774
 -------------------------------------------------------
 Smallest overlap matrix eigenvalue = 2.99E-04

 Scale SEOQF with 1.000000e-01/1.000000e-01/1.000000e-01

 Standard Electronic Orientation quadrupole field applied
 Nucleus-field energy     =    -0.0000000017 hartrees
 Guess from superposition of atomic densities
 Warning:  Energy on first SCF cycle will be non-variational
 SAD guess density has 22.000000 electrons
 A restricted hybrid HF-DFT SCF calculation will be
 performed using Pulay DIIS + Geometric Direct Minimization
 Exchange:     0.2000 Hartree-Fock + 0.0800 Slater + 0.7200 B88
 Correlation:  0.1900 VWN1RPA + 0.8100 LYP
 Using Euler-Maclaurin-Lebedev (99,590) quadrature formula
 SCF converges when RMS gradient is below 1.0E-08
 using 8 threads for integral computing
 -------------------------------------------------------
 OpenMP Integral computing Module                
 Release: version 2.0, May 2017, Q-Chem Inc. Pleasanton 
 -------------------------------------------------------
TIMEINFO->: J/JK contribution 5.92 sec.
 -------------------------------------------------------
 OpenMP BLAS3 based DFT computing Module                
 Release: version 1.0, May 2013, Q-Chem Inc. Pittsburgh 
 -------------------------------------------------------
 ---------------------------------------
  Cycle       Energy        RMS Gradient
 ---------------------------------------
    1    -396.2014735297      2.71E-02 Done DIIS. Switching to GDM
TIMEINFO->: J/JK contribution 13.02 sec.
    2    -395.9357205503      8.27E-01 Descent step
TIMEINFO->: J/JK contribution 13.62 sec.
    3    -395.4356073415      3.69E-01 Line search: overstep
TIMEINFO->: J/JK contribution 14.28 sec.
    4    -396.0887920111      2.04E-01 Normal BFGS step
TIMEINFO->: J/JK contribution 14.02 sec.
    5    -396.1230385113      3.06E-02 Normal BFGS step
TIMEINFO->: J/JK contribution 14.73 sec.
    6    -396.1246065943      5.72E-03 Normal BFGS step
TIMEINFO->: J/JK contribution 14.44 sec.
    7    -396.1248468022      1.47E-03 Normal BFGS step
TIMEINFO->: J/JK contribution 13.46 sec.
    8    -396.1248650874      5.18E-04 Normal BFGS step
TIMEINFO->: J/JK contribution 13.62 sec.
    9    -396.1248663485      1.35E-04 Normal BFGS step
TIMEINFO->: J/JK contribution 13.51 sec.
   10    -396.1248664093      6.11E-05 Normal BFGS step
TIMEINFO->: J/JK contribution 13.56 sec.
   11    -396.1248664188      3.01E-06 Normal BFGS step
TIMEINFO->: J/JK contribution 14.20 sec.
   12    -396.1248664189      1.01E-06 Normal BFGS step
TIMEINFO->: J/JK contribution 14.50 sec.
   13    -396.1248664189      1.11E-07 Normal BFGS step
TIMEINFO->: J/JK contribution 14.56 sec.
   GDM::WARNING energy changes are now smaller than effective accuracy.
   GDM::        calculation will continue, but THRESH should be increased
   GDM::        or SCF_CONVERGENCE decreased.
   GDM::        effective_thresh =   7.214906172503532E-010
   14    -396.1248664189      4.44E-07 Normal BFGS step
TIMEINFO->: J/JK contribution 15.08 sec.
   15    -396.1248664189      1.50E-07 Normal BFGS step
TIMEINFO->: J/JK contribution 14.82 sec.
   GDM::WARNING energy changes are now smaller than effective accuracy.
   GDM::        calculation will continue, but THRESH should be increased
   GDM::        or SCF_CONVERGENCE decreased.
   GDM::        effective_thresh =   7.214906172503532E-010
   16    -396.1248664189      2.17E-08 Normal BFGS step
TIMEINFO->: J/JK contribution 14.36 sec.
   GDM::WARNING energy changes are now smaller than effective accuracy.
   GDM::        calculation will continue, but THRESH should be increased
   GDM::        or SCF_CONVERGENCE decreased.
   GDM::        effective_thresh =   9.798893571555389E-010
   17    -396.1248664189      7.27E-09 Convergence criterion met
 ---------------------------------------
 B3LYP orbitals are now ready for the XYGJ-OS calculation.
 XYGJ-OS energy = Exch (0.7731 HF  + 0.2269 Slater) + 
                  Corr (0.2754 LYP + 0.2309 VWN1RPA + 0.4364 OS-MP2)
 SCF time:  CPU 278.22 s  wall 38.94 s
 SCF   energy in the final basis set = -395.33297989
 Total energy in the final basis set = -395.33297989
 Entering Scaled Opposite Spin MP2
 NBasAux in rimp2.F =          253

 OS-MP2 job begins now...

 SOS scaling factor =  0.4
 Form (P|Q)**(-1/2)...
 
 Form (ia|P)...
 Form BiaQ = (ia|P)*(P|Q)**(-1/2)...
 Laplace quadrature loop begins
 Laplace point 1: correlation energy     =        -0.2108043949
 Laplace point 2: correlation energy     =        -0.1625069459
 Laplace point 3: correlation energy     =        -0.1306289543
 Laplace point 4: correlation energy     =        -0.1236943364
 Laplace point 5: correlation energy     =        -0.0759248990
 Laplace point 6: correlation energy     =        -0.0227790135
 Laplace point 7: correlation energy     =        -0.0015102001
 
 singles contribution not yet available for XYGJ-OS 
 Total OS-MP2 correlation energy         =        -0.7278487442

 Total XYGJ-OS energy                    =      -395.6506130774
 
 ------------------------------------------------------------------------------
                     SOSMP2        : Timing summary (seconds)
 ------------------------------------------------------------------------------
     job step          cpu (% of tot)      sys (% of tot)     wall (% of tot)
 ------------------------------------------------------------------------------
  Form inv (P|Q)    0.4575E+00 ( 6.7)   0.3000E-05 ( 8.1)   0.5753E-01 ( 6.7)
  Form (ia|P)       0.4213E+01 (62.0)   0.2000E-04 (54.1)   0.5292E+00 (62.1)
  Form  BiaQ        0.2619E+00 ( 3.9)   0.2000E-05 ( 5.4)   0.3276E-01 ( 3.8)
  LP orbitals       0.3391E+00 ( 5.0)   0.5000E-05 (13.5)   0.4245E-01 ( 5.0)
  Form  X(PQ)       0.1172E+01 (17.3)   0.4000E-05 (10.8)   0.1467E+00 (17.2)
  Increment EMP2    0.2481E+00 ( 3.7)   0.2000E-05 ( 5.4)   0.3104E-01 ( 3.6)
 ------------------------------------------------------------------------------
   Grand Totals     0.6795E+01          0.3700E-04          0.8523E+00
 ------------------------------------------------------------------------------
 
 --------------------------------------------------------------
 
                    Orbital Energies (a.u.)
 --------------------------------------------------------------
 
 Alpha MOs
 -- Occupied --
-77.101 -14.356  -6.597  -4.757  -4.757  -4.753  -0.857  -0.501
 -0.340  -0.340  -0.333
 -- Virtual --
 -0.099  -0.099   0.004   0.013   0.041   0.041   0.074   0.107
  0.107   0.116   0.116   0.116   0.202   0.202   0.208   0.268
  0.339   0.339   0.361   0.380   0.380   0.404   0.425   0.425
  0.428   0.428   0.504   0.504   0.566   0.566   0.594   0.638
  0.638   0.654   0.669   0.669   0.769   0.861   0.861   0.997
  1.110   1.292   1.292   1.313   1.313   1.366   1.366   1.376
  1.376   1.384   1.448   1.448   1.579   1.579   1.611   1.611
  1.642   1.795   1.795   1.870   1.870   1.904   1.940   1.940
  1.969   2.249   2.345   2.345   2.883   3.121   3.121   3.648
  4.248   4.548   4.548   4.644   4.644   4.714   4.714   4.718
  4.718   5.017   5.017   5.035   5.276   6.900   6.900   7.163
  7.163   7.707   9.506   9.506  10.113  11.880  19.912  19.912
 20.555  21.524  26.231  26.231  26.239  26.239  26.247  26.247
 26.261  32.446  32.446  32.578  32.578  32.891  38.092  38.092
 38.191  38.191  38.258  40.832  40.832  41.580  70.030 107.094
107.094 107.765 113.396
 --------------------------------------------------------------
 
          Ground-State Mulliken Net Atomic Charges

     Atom                 Charge (a.u.)
  ----------------------------------------
      1 N                    -0.546612
      2 P                     0.546612
  ----------------------------------------
  Sum of atomic charges =    -0.000000

 -----------------------------------------------------------------
                    Cartesian Multipole Moments
 -----------------------------------------------------------------
    Charge (ESU x 10^10)
                 0.0000
    Dipole Moment (Debye)
         X       0.0000      Y      -0.0000      Z      -2.9067
       Tot       2.9067
    Quadrupole Moments (Debye-Ang)
        XX     -17.6691     XY       0.0000     YY     -17.6691
        XZ      -0.0000     YZ      -0.0000     ZZ     -22.9666
    Octopole Moments (Debye-Ang^2)
       XXX      -0.0000    XXY       0.0000    XYY       0.0000
       YYY       0.0000    XXZ      -9.5147    XYZ       0.0000
       YYZ      -9.5147    XZZ      -0.0000    YZZ       0.0000
       ZZZ     -36.0087
    Hexadecapole Moments (Debye-Ang^3)
      XXXX     -23.2444   XXXY       0.0000   XXYY      -7.7481
      XYYY       0.0000   YYYY     -23.2444   XXXZ      -0.0000
      XXYZ       0.0000   XYYZ       0.0000   YYYZ       0.0000
      XXZZ     -22.0066   XYZZ       0.0000   YYZZ     -22.0066
      XZZZ      -0.0000   YZZZ       0.0000   ZZZZ    -123.9221
 -----------------------------------------------------------------
Archival summary:
1\1\n0090.mhg0\SP\ProcedureUnspecified\BasisUnspecified\11\yhljason\WedOct2103:30:022020WedOct2103:30:022020\0\\#,ProcedureUnspecified,BasisUnspecified,\\0,1\N\P,1,1.4909\\\@

 Total job time:  40.86s(wall), 289.72s(cpu) 
 Wed Oct 21 03:30:02 2020

        *************************************************************
        *                                                           *
        *  Thank you very much for using Q-Chem.  Have a nice day.  *
        *                                                           *
        *************************************************************


 
User input: 2 of 7 
 
Q-Chem Developer Version!
                  Welcome to Q-Chem
     A Quantum Leap Into The Future Of Chemistry


 Q-Chem 5.1, Q-Chem, Inc., Pleasanton, CA (2018)

 Yihan Shao,  Zhengting Gan,  E. Epifanovsky,  A. T. B. Gilbert,  M. Wormit,  
 J. Kussmann,  A. W. Lange,  A. Behn,  Jia Deng,  Xintian Feng,  D. Ghosh,  
 M. Goldey,  P. R. Horn,  L. D. Jacobson,  I. Kaliman,  T. Kus,  A. Landau,  
 Jie Liu,  E. I. Proynov,  R. M. Richard,  R. P. Steele,  E. J. Sundstrom,  
 H. L. Woodcock III,  P. M. Zimmerman,  D. Zuev,  B. Albrecht,  E. Alguire,  
 S. A. Baeppler,  D. Barton,  Z. Benda,  Y. A. Bernard,  E. J. Berquist,  
 K. B. Bravaya,  H. Burton,  D. Casanova,  Chun-Min Chang,  Yunqing Chen,  
 A. Chien,  K. D. Closser,  M. P. Coons,  S. Coriani,  S. Dasgupta,  
 A. L. Dempwolff,  M. Diedenhofen,  Hainam Do,  R. G. Edgar,  Po-Tung Fang,  
 S. Faraji,  S. Fatehi,  Qingguo Feng,  K. D. Fenk,  J. Fosso-Tande,  
 Qinghui Ge,  A. Ghysels,  G. Gidofalvi,  J. Gomes,  J. Gonthier,  A. Gunina,  
 D. Hait,  M. W. D. Hanson-Heine,  P. H. P. Harbach,  A. W. Hauser,  
 J. E. Herr,  E. G. Hohenstein,  Z. C. Holden,  Kerwin Hui,  B. C. Huynh,  
 T.-C. Jagau,  Hyunjun Ji,  B. Kaduk,  K. Khistyaev,  Jaehoon Kim,  
 P. Klunzinger,  K. Koh,  D. Kosenkov,  L. Koulias,  T. Kowalczyk,  
 C. M. Krauter,  A. Kunitsa,  Ka Un Lao,  A. Laurent,  K. V. Lawler,  
 Joonho Lee,  D. Lefrancois,  S. Lehtola,  D. S. Levine,  Yi-Pei Li,  
 You-Sheng Lin,  Fenglai Liu,  E. Livshits,  A. Luenser,  P. Manohar,  
 E. Mansoor,  S. F. Manzer,  Shan-Ping Mao,  Yuezhi Mao,  N. Mardirossian,  
 A. V. Marenich,  T. Markovich,  L. A. Martinez-Martinez,  S. A. Maurer,  
 N. J. Mayhall,  S. C. McKenzie,  J.-M. Mewes,  A. F. Morrison,  
 J. W. Mullinax,  K. Nanda,  T. S. Nguyen-Beck,  R. Olivares-Amaya,  
 J. A. Parkhill,  T. M. Perrine,  F. Plasser,  P. Pokhilko,  S. Prager,  
 A. Prociuk,  E. Ramos,  D. R. Rehn,  F. Rob,  M. Schneider,  N. Sergueev,  
 S. M. Sharada,  S. Sharma,  D. W. Small,  T. Stauch,  T. Stein,  
 Yu-Chuan Su,  A. J. W. Thom,  A. Tkatchenko,  T. Tsuchimochi,  N. M. Tubman,  
 L. Vogt,  M. L. Vidal,  O. Vydrov,  M. A. Watson,  J. Wenzel,  
 M. de Wergifosse,  T. A. Wesolowski,  A. White,  J. Witte,  A. Yamada,  
 Jun Yang,  K. Yao,  S. Yeganeh,  S. R. Yost,  Zhi-Qiang You,  A. Zech,  
 Igor Ying Zhang,  Xing Zhang,  Yan Zhao,  Ying Zhu,  B. R. Brooks,  
 G. K. L. Chan,  C. J. Cramer,  M. S. Gordon,  W. J. Hehre,  A. Klamt,  
 M. W. Schmidt,  C. D. Sherrill,  D. G. Truhlar,  A. Aspuru-Guzik,  R. Baer,  
 A. T. Bell,  N. A. Besley,  Jeng-Da Chai,  A. E. DePrince, III,  
 R. A. DiStasio Jr.,  A. Dreuw,  B. D. Dunietz,  T. R. Furlani,  
 Chao-Ping Hsu,  Yousung Jung,  Jing Kong,  D. S. Lambrecht,  WanZhen Liang,  
 C. Ochsenfeld,  V. A. Rassolov,  L. V. Slipchenko,  J. E. Subotnik,  
 T. Van Voorhis,  J. M. Herbert,  A. I. Krylov,  P. M. W. Gill,  M. Head-Gordon

 Contributors to earlier versions of Q-Chem not listed above: 
 R. D. Adamson,  B. Austin,  J. Baker,  G. J. O. Beran,  K. Brandhorst,  
 S. T. Brown,  E. F. C. Byrd,  A. K. Chakraborty,  C.-L. Cheng,  
 Siu Hung Chien,  D. M. Chipman,  D. L. Crittenden,  H. Dachsel,  
 R. J. Doerksen,  A. D. Dutoi,  L. Fusti-Molnar,  W. A. Goddard III,  
 A. Golubeva-Zadorozhnaya,  S. R. Gwaltney,  G. Hawkins,  A. Heyden,  
 S. Hirata,  G. Kedziora,  F. J. Keil,  C. Kelley,  Jihan Kim,  R. A. King,  
 R. Z. Khaliullin,  P. P. Korambath,  W. Kurlancheek,  A. M. Lee,  M. S. Lee,  
 S. V. Levchenko,  Ching Yeh Lin,  D. Liotard,  R. C. Lochan,  I. Lotan,  
 P. E. Maslen,  N. Nair,  D. P. O'Neill,  D. Neuhauser,  E. Neuscamman,  
 C. M. Oana,  R. Olson,  B. Peters,  R. Peverati,  P. A. Pieniazek,  
 Y. M. Rhee,  J. Ritchie,  M. A. Rohrdanz,  E. Rosta,  N. J. Russ,  
 H. F. Schaefer III,  N. E. Schultz,  N. Shenvi,  A. C. Simmonett,  A. Sodt,  
 D. Stuck,  K. S. Thanthiriwatte,  V. Vanovschi,  Tao Wang,  A. Warshel,  
 C. F. Williams,  Q. Wu,  X. Xu,  W. Zhang

 Please cite Q-Chem as follows:
 Y. Shao et al., Mol. Phys. 113, 184-215 (2015)
 DOI: 10.1080/00268976.2014.952696

 Q-Chem 5.1.1 for Intel X86 EM64T Linux

 Parts of Q-Chem use Armadillo 8.300.2 (Tropical Shenanigans).
 http://arma.sourceforge.net/

 Q-Chem begins on Wed Oct 21 03:30:02 2020  

Host: n0090.mhg0
0

     Scratch files written to /local/scratch/users/yhljason/NP_XYGJOS_aug-cc-pcVTZ.inp20201021032920//
The previous job contains 0 fragments, simply inherited here
Input Ideriv = 2
Curr. Ideriv = -1
Max.  Ideriv = 2

Checking the input file for inconsistencies... 	...done.

--------------------------------------------------------------
User input:
--------------------------------------------------------------
$molecule
read
$end

$rem

jobtype sp
exchange XYGJOS
xc_grid 000099000590
basis aug-cc-pcVTZ
aux_basis rimp2-aug-cc-pVTZ
max_scf_cycles 200
thresh 14
scf_convergence 8
mem_total 128000
cc_memory 96000
cc_backend xm
mem_static 1500
symmetry false
sym_ignore true
scf_guess read
unrestricted false
scf_algorithm gdm
n_frozen_core 0
$end

$multipole_field
XX 0.0001
$end


--------------------------------------------------------------
 ----------------------------------------------------------------
             Standard Nuclear Orientation (Angstroms)
    I     Atom           X                Y                Z
 ----------------------------------------------------------------
    1      N       0.0000000000     0.0000000000     1.4909000000
    2      P       0.0000000000     0.0000000000     0.0000000000
 ----------------------------------------------------------------
 Nuclear Repulsion Energy =    37.2685003246 hartrees
 There are       11 alpha and       11 beta electrons
 Requested basis set is aug-cc-pCVTZ
 There are 42 shells and 134 basis functions

 Total QAlloc Memory Limit 128000 MB
 Mega-Array Size      1467 MB
 MEM_STATIC part      1500 MB

                       Distance Matrix (Angstroms)
             N (  1)
   P (  2)  1.490900
 
 Applying Cartesian multipole field
    Component          Value
    ---------          -----
     (2,0,0)        1.00000E-04
 Requested basis set is rimp2-aug-cc-pVTZ
 There are 65 shells and 253 basis functions
 A cutoff of  1.0D-14 yielded    891 shell pairs
 There are      9167 function pairs (     12817 Cartesian)
 
 -------------------------------------------------------
 OpenMP Integral Computing Module                       
 Release: version 1.0, May 2013, Q-Chem Inc. Pittsburgh 
 -------------------------------------------------------
 Integral Job Info:
 Integral job number is                      11
 Integral operator is                         1
 short-range coefficients                     0
 long-range coefficients              100000000
 Omega coefficients                           0
 if combine SR and LR in K                    0
 Integral screening is                        0
 Integral computing path is                   2
 max size of driver memory is            800000
 size of driver memory is                776718
 size of scratch memory is             29531563
 max col of scratch BK array              10000
 max len of scratch array in speh3          662
 max len of scratch index in speh4           32
 max int batch size is                      520
 min int batch size is                       52
 fixed nKL is                                31
 max L of basis functions is                  3
 order of int derivative is                   0
 number of shells is                         42
 number of basis is                         158
 number of cartesian basis is               158
 number of contracted shell pairs           891
 number of primitive shell pairs           5125
 maxK2 (contraction) of shell pair          169
 max number of K2 of shell pair               1
 max number of CS2 of shell pair             97
 max number of PS2 of shell pair           1014
 mem total for path MDJ                  562774
 -------------------------------------------------------
 Smallest overlap matrix eigenvalue = 2.99E-04
 Guess MOs from SCF MO coefficient file
 Reading MOs from coefficient file
 Reading MOs from coefficient file
 A restricted hybrid HF-DFT SCF calculation will be
 performed using Geometric Direct Minimization
 Exchange:     0.2000 Hartree-Fock + 0.0800 Slater + 0.7200 B88
 Correlation:  0.1900 VWN1RPA + 0.8100 LYP
 Using Euler-Maclaurin-Lebedev (99,590) quadrature formula
 SCF converges when RMS gradient is below 1.0E-08
Using Q-Chem read-in guess as SCF_GUESS READ specified.

 using 8 threads for integral computing
 -------------------------------------------------------
 OpenMP Integral computing Module                
 Release: version 2.0, May 2017, Q-Chem Inc. Pleasanton 
 -------------------------------------------------------
TIMEINFO->: J/JK contribution 15.08 sec.
 -------------------------------------------------------
 OpenMP BLAS3 based DFT computing Module                
 Release: version 1.0, May 2013, Q-Chem Inc. Pittsburgh 
 -------------------------------------------------------
 ---------------------------------------
  Cycle       Energy        RMS Gradient
 ---------------------------------------
    1    -396.1261800721      3.84E-04 Normal BFGS step
TIMEINFO->: J/JK contribution 15.09 sec.
    2    -396.1261804044      6.52E-04 Normal BFGS step
TIMEINFO->: J/JK contribution 15.20 sec.
    3    -396.1261800881      2.81E-04 Line search: overstep
TIMEINFO->: J/JK contribution 14.73 sec.
    4    -396.1261806264      1.76E-04 Normal BFGS step
TIMEINFO->: J/JK contribution 15.32 sec.
    5    -396.1261806974      4.87E-05 Normal BFGS step
TIMEINFO->: J/JK contribution 14.68 sec.
    6    -396.1261807127      9.70E-06 Normal BFGS step
TIMEINFO->: J/JK contribution 14.81 sec.
    7    -396.1261807130      1.94E-06 Normal BFGS step
TIMEINFO->: J/JK contribution 14.62 sec.
    8    -396.1261807130      4.30E-07 Normal BFGS step
TIMEINFO->: J/JK contribution 14.55 sec.
    9    -396.1261807130      1.85E-07 Normal BFGS step
TIMEINFO->: J/JK contribution 14.30 sec.
   GDM::WARNING energy changes are now smaller than effective accuracy.
   GDM::        calculation will continue, but THRESH should be increased
   GDM::        or SCF_CONVERGENCE decreased.
   GDM::        effective_thresh =   1.100000000000000E-010
   10    -396.1261807130      2.06E-08 Normal BFGS step
TIMEINFO->: J/JK contribution 14.43 sec.
   GDM::WARNING energy changes are now smaller than effective accuracy.
   GDM::        calculation will continue, but THRESH should be increased
   GDM::        or SCF_CONVERGENCE decreased.
   GDM::        effective_thresh =   1.100000000000000E-010
   11    -396.1261807130      4.70E-09 Convergence criterion met
 ---------------------------------------
 B3LYP orbitals are now ready for the XYGJ-OS calculation.
 XYGJ-OS energy = Exch (0.7731 HF  + 0.2269 Slater) + 
                  Corr (0.2754 LYP + 0.2309 VWN1RPA + 0.4364 OS-MP2)
 SCF time:  CPU 195.39 s  wall 24.44 s
 SCF   energy in the final basis set = -395.33430044
 Total energy in the final basis set = -395.33430044
 Entering Scaled Opposite Spin MP2
 NBasAux in rimp2.F =          253

 OS-MP2 job begins now...

 SOS scaling factor =  0.4
 Form (P|Q)**(-1/2)...
 
 Form (ia|P)...
 Form BiaQ = (ia|P)*(P|Q)**(-1/2)...
 Laplace quadrature loop begins
 Laplace point 1: correlation energy     =        -0.2108005398
 Laplace point 2: correlation energy     =        -0.1624987241
 Laplace point 3: correlation energy     =        -0.1306185998
 Laplace point 4: correlation energy     =        -0.1236907725
 Laplace point 5: correlation energy     =        -0.0759285891
 Laplace point 6: correlation energy     =        -0.0227825459
 Laplace point 7: correlation energy     =        -0.0015110079
 
 singles contribution not yet available for XYGJ-OS 
 Total OS-MP2 correlation energy         =        -0.7278307791

 Total XYGJ-OS energy                    =      -395.6519257899
 
 ------------------------------------------------------------------------------
                     SOSMP2        : Timing summary (seconds)
 ------------------------------------------------------------------------------
     job step          cpu (% of tot)      sys (% of tot)     wall (% of tot)
 ------------------------------------------------------------------------------
  Form inv (P|Q)    0.4500E+00 ( 6.7)   0.2000E-05 ( 5.3)   0.5652E-01 ( 6.7)
  Form (ia|P)       0.4142E+01 (61.8)   0.2200E-04 (57.9)   0.5188E+00 (61.9)
  Form  BiaQ        0.2350E+00 ( 3.5)   0.2000E-05 ( 5.3)   0.2939E-01 ( 3.5)
  LP orbitals       0.3365E+00 ( 5.0)   0.2000E-05 ( 5.3)   0.4209E-01 ( 5.0)
  Form  X(PQ)       0.1179E+01 (17.6)   0.8000E-05 (21.1)   0.1474E+00 (17.6)
  Increment EMP2    0.2494E+00 ( 3.7)   0.1000E-05 ( 2.6)   0.3119E-01 ( 3.7)
 ------------------------------------------------------------------------------
   Grand Totals     0.6698E+01          0.3800E-04          0.8387E+00
 ------------------------------------------------------------------------------
 
 --------------------------------------------------------------
 
                    Orbital Energies (a.u.)
 --------------------------------------------------------------
 
 Alpha MOs
 -- Occupied --
-77.101 -14.356  -6.597  -4.758  -4.758  -4.753  -0.857  -0.501
 -0.341  -0.340  -0.334
 -- Virtual --
 -0.099  -0.099   0.003   0.012   0.038   0.040   0.073   0.106
  0.106   0.114   0.115   0.115   0.201   0.202   0.207   0.267
  0.338   0.339   0.361   0.380   0.380   0.404   0.424   0.425
  0.427   0.427   0.503   0.503   0.565   0.565   0.594   0.638
  0.638   0.653   0.668   0.669   0.768   0.860   0.860   0.997
  1.110   1.292   1.292   1.313   1.313   1.365   1.365   1.375
  1.376   1.384   1.448   1.448   1.579   1.579   1.610   1.610
  1.642   1.795   1.795   1.869   1.869   1.904   1.939   1.939
  1.969   2.248   2.344   2.344   2.883   3.120   3.121   3.647
  4.247   4.548   4.548   4.644   4.644   4.713   4.713   4.718
  4.718   5.017   5.017   5.035   5.275   6.899   6.899   7.163
  7.163   7.706   9.505   9.506  10.113  11.879  19.911  19.911
 20.555  21.524  26.230  26.230  26.238  26.238  26.247  26.247
 26.261  32.445  32.445  32.578  32.578  32.891  38.092  38.092
 38.191  38.191  38.257  40.831  40.831  41.580  70.029 107.094
107.094 107.765 113.395
 --------------------------------------------------------------
 
          Ground-State Mulliken Net Atomic Charges

     Atom                 Charge (a.u.)
  ----------------------------------------
      1 N                    -0.545734
      2 P                     0.545734
  ----------------------------------------
  Sum of atomic charges =     0.000000

 -----------------------------------------------------------------
                    Cartesian Multipole Moments
 -----------------------------------------------------------------
    Charge (ESU x 10^10)
                 0.0000
    Dipole Moment (Debye)
         X      -0.0000      Y      -0.0000      Z      -2.9056
       Tot       2.9056
    Quadrupole Moments (Debye-Ang)
        XX     -17.6863     XY       0.0000     YY     -17.6717
        XZ       0.0000     YZ      -0.0000     ZZ     -22.9652
    Octopole Moments (Debye-Ang^2)
       XXX      -0.0000    XXY      -0.0000    XYY      -0.0000
       YYY      -0.0000    XXZ      -9.5197    XYZ       0.0000
       YYZ      -9.5170    XZZ       0.0000    YZZ      -0.0000
       ZZZ     -36.0067
    Hexadecapole Moments (Debye-Ang^3)
      XXXX     -23.3258   XXXY       0.0000   XXYY      -7.7643
      XYYY       0.0000   YYYY     -23.2602   XXXZ       0.0000
      XXYZ      -0.0000   XYYZ       0.0000   YYYZ      -0.0000
      XXZZ     -22.0287   XYZZ       0.0000   YYZZ     -22.0130
      XZZZ       0.0000   YZZZ      -0.0000   ZZZZ    -123.9289
 -----------------------------------------------------------------
Archival summary:
1\1\n0090.mhg0\SP\ProcedureUnspecified\BasisUnspecified\11\yhljason\WedOct2103:30:282020WedOct2103:30:282020\0\\#,ProcedureUnspecified,BasisUnspecified,\\0,1\N\P,1,1.4909\\\@

 Total job time:  26.00s(wall), 207.53s(cpu) 
 Wed Oct 21 03:30:28 2020

        *************************************************************
        *                                                           *
        *  Thank you very much for using Q-Chem.  Have a nice day.  *
        *                                                           *
        *************************************************************


 
User input: 3 of 7 
 
Q-Chem Developer Version!
                  Welcome to Q-Chem
     A Quantum Leap Into The Future Of Chemistry


 Q-Chem 5.1, Q-Chem, Inc., Pleasanton, CA (2018)

 Yihan Shao,  Zhengting Gan,  E. Epifanovsky,  A. T. B. Gilbert,  M. Wormit,  
 J. Kussmann,  A. W. Lange,  A. Behn,  Jia Deng,  Xintian Feng,  D. Ghosh,  
 M. Goldey,  P. R. Horn,  L. D. Jacobson,  I. Kaliman,  T. Kus,  A. Landau,  
 Jie Liu,  E. I. Proynov,  R. M. Richard,  R. P. Steele,  E. J. Sundstrom,  
 H. L. Woodcock III,  P. M. Zimmerman,  D. Zuev,  B. Albrecht,  E. Alguire,  
 S. A. Baeppler,  D. Barton,  Z. Benda,  Y. A. Bernard,  E. J. Berquist,  
 K. B. Bravaya,  H. Burton,  D. Casanova,  Chun-Min Chang,  Yunqing Chen,  
 A. Chien,  K. D. Closser,  M. P. Coons,  S. Coriani,  S. Dasgupta,  
 A. L. Dempwolff,  M. Diedenhofen,  Hainam Do,  R. G. Edgar,  Po-Tung Fang,  
 S. Faraji,  S. Fatehi,  Qingguo Feng,  K. D. Fenk,  J. Fosso-Tande,  
 Qinghui Ge,  A. Ghysels,  G. Gidofalvi,  J. Gomes,  J. Gonthier,  A. Gunina,  
 D. Hait,  M. W. D. Hanson-Heine,  P. H. P. Harbach,  A. W. Hauser,  
 J. E. Herr,  E. G. Hohenstein,  Z. C. Holden,  Kerwin Hui,  B. C. Huynh,  
 T.-C. Jagau,  Hyunjun Ji,  B. Kaduk,  K. Khistyaev,  Jaehoon Kim,  
 P. Klunzinger,  K. Koh,  D. Kosenkov,  L. Koulias,  T. Kowalczyk,  
 C. M. Krauter,  A. Kunitsa,  Ka Un Lao,  A. Laurent,  K. V. Lawler,  
 Joonho Lee,  D. Lefrancois,  S. Lehtola,  D. S. Levine,  Yi-Pei Li,  
 You-Sheng Lin,  Fenglai Liu,  E. Livshits,  A. Luenser,  P. Manohar,  
 E. Mansoor,  S. F. Manzer,  Shan-Ping Mao,  Yuezhi Mao,  N. Mardirossian,  
 A. V. Marenich,  T. Markovich,  L. A. Martinez-Martinez,  S. A. Maurer,  
 N. J. Mayhall,  S. C. McKenzie,  J.-M. Mewes,  A. F. Morrison,  
 J. W. Mullinax,  K. Nanda,  T. S. Nguyen-Beck,  R. Olivares-Amaya,  
 J. A. Parkhill,  T. M. Perrine,  F. Plasser,  P. Pokhilko,  S. Prager,  
 A. Prociuk,  E. Ramos,  D. R. Rehn,  F. Rob,  M. Schneider,  N. Sergueev,  
 S. M. Sharada,  S. Sharma,  D. W. Small,  T. Stauch,  T. Stein,  
 Yu-Chuan Su,  A. J. W. Thom,  A. Tkatchenko,  T. Tsuchimochi,  N. M. Tubman,  
 L. Vogt,  M. L. Vidal,  O. Vydrov,  M. A. Watson,  J. Wenzel,  
 M. de Wergifosse,  T. A. Wesolowski,  A. White,  J. Witte,  A. Yamada,  
 Jun Yang,  K. Yao,  S. Yeganeh,  S. R. Yost,  Zhi-Qiang You,  A. Zech,  
 Igor Ying Zhang,  Xing Zhang,  Yan Zhao,  Ying Zhu,  B. R. Brooks,  
 G. K. L. Chan,  C. J. Cramer,  M. S. Gordon,  W. J. Hehre,  A. Klamt,  
 M. W. Schmidt,  C. D. Sherrill,  D. G. Truhlar,  A. Aspuru-Guzik,  R. Baer,  
 A. T. Bell,  N. A. Besley,  Jeng-Da Chai,  A. E. DePrince, III,  
 R. A. DiStasio Jr.,  A. Dreuw,  B. D. Dunietz,  T. R. Furlani,  
 Chao-Ping Hsu,  Yousung Jung,  Jing Kong,  D. S. Lambrecht,  WanZhen Liang,  
 C. Ochsenfeld,  V. A. Rassolov,  L. V. Slipchenko,  J. E. Subotnik,  
 T. Van Voorhis,  J. M. Herbert,  A. I. Krylov,  P. M. W. Gill,  M. Head-Gordon

 Contributors to earlier versions of Q-Chem not listed above: 
 R. D. Adamson,  B. Austin,  J. Baker,  G. J. O. Beran,  K. Brandhorst,  
 S. T. Brown,  E. F. C. Byrd,  A. K. Chakraborty,  C.-L. Cheng,  
 Siu Hung Chien,  D. M. Chipman,  D. L. Crittenden,  H. Dachsel,  
 R. J. Doerksen,  A. D. Dutoi,  L. Fusti-Molnar,  W. A. Goddard III,  
 A. Golubeva-Zadorozhnaya,  S. R. Gwaltney,  G. Hawkins,  A. Heyden,  
 S. Hirata,  G. Kedziora,  F. J. Keil,  C. Kelley,  Jihan Kim,  R. A. King,  
 R. Z. Khaliullin,  P. P. Korambath,  W. Kurlancheek,  A. M. Lee,  M. S. Lee,  
 S. V. Levchenko,  Ching Yeh Lin,  D. Liotard,  R. C. Lochan,  I. Lotan,  
 P. E. Maslen,  N. Nair,  D. P. O'Neill,  D. Neuhauser,  E. Neuscamman,  
 C. M. Oana,  R. Olson,  B. Peters,  R. Peverati,  P. A. Pieniazek,  
 Y. M. Rhee,  J. Ritchie,  M. A. Rohrdanz,  E. Rosta,  N. J. Russ,  
 H. F. Schaefer III,  N. E. Schultz,  N. Shenvi,  A. C. Simmonett,  A. Sodt,  
 D. Stuck,  K. S. Thanthiriwatte,  V. Vanovschi,  Tao Wang,  A. Warshel,  
 C. F. Williams,  Q. Wu,  X. Xu,  W. Zhang

 Please cite Q-Chem as follows:
 Y. Shao et al., Mol. Phys. 113, 184-215 (2015)
 DOI: 10.1080/00268976.2014.952696

 Q-Chem 5.1.1 for Intel X86 EM64T Linux

 Parts of Q-Chem use Armadillo 8.300.2 (Tropical Shenanigans).
 http://arma.sourceforge.net/

 Q-Chem begins on Wed Oct 21 03:30:29 2020  

Host: n0090.mhg0
0

     Scratch files written to /local/scratch/users/yhljason/NP_XYGJOS_aug-cc-pcVTZ.inp20201021032920//
The previous job contains 0 fragments, simply inherited here
Input Ideriv = 2
Curr. Ideriv = -1
Max.  Ideriv = 2

Checking the input file for inconsistencies... 	...done.

--------------------------------------------------------------
User input:
--------------------------------------------------------------
$molecule
read
$end

$rem

jobtype sp
exchange XYGJOS
xc_grid 000099000590
basis aug-cc-pcVTZ
aux_basis rimp2-aug-cc-pVTZ
max_scf_cycles 200
thresh 14
scf_convergence 8
mem_total 128000
cc_memory 96000
cc_backend xm
mem_static 1500
symmetry false
sym_ignore true
scf_guess read
unrestricted false
scf_algorithm gdm
n_frozen_core 0
$end

$multipole_field
XX -0.0001
$end


--------------------------------------------------------------
 ----------------------------------------------------------------
             Standard Nuclear Orientation (Angstroms)
    I     Atom           X                Y                Z
 ----------------------------------------------------------------
    1      N       0.0000000000     0.0000000000     1.4909000000
    2      P       0.0000000000     0.0000000000     0.0000000000
 ----------------------------------------------------------------
 Nuclear Repulsion Energy =    37.2685003246 hartrees
 There are       11 alpha and       11 beta electrons
 Requested basis set is aug-cc-pCVTZ
 There are 42 shells and 134 basis functions

 Total QAlloc Memory Limit 128000 MB
 Mega-Array Size      1467 MB
 MEM_STATIC part      1500 MB

                       Distance Matrix (Angstroms)
             N (  1)
   P (  2)  1.490900
 
 Applying Cartesian multipole field
    Component          Value
    ---------          -----
     (2,0,0)       -1.00000E-04
 Requested basis set is rimp2-aug-cc-pVTZ
 There are 65 shells and 253 basis functions
 A cutoff of  1.0D-14 yielded    891 shell pairs
 There are      9167 function pairs (     12817 Cartesian)
 
 -------------------------------------------------------
 OpenMP Integral Computing Module                       
 Release: version 1.0, May 2013, Q-Chem Inc. Pittsburgh 
 -------------------------------------------------------
 Integral Job Info:
 Integral job number is                      11
 Integral operator is                         1
 short-range coefficients                     0
 long-range coefficients              100000000
 Omega coefficients                           0
 if combine SR and LR in K                    0
 Integral screening is                        0
 Integral computing path is                   2
 max size of driver memory is            800000
 size of driver memory is                776718
 size of scratch memory is             29531563
 max col of scratch BK array              10000
 max len of scratch array in speh3          662
 max len of scratch index in speh4           32
 max int batch size is                      520
 min int batch size is                       52
 fixed nKL is                                31
 max L of basis functions is                  3
 order of int derivative is                   0
 number of shells is                         42
 number of basis is                         158
 number of cartesian basis is               158
 number of contracted shell pairs           891
 number of primitive shell pairs           5125
 maxK2 (contraction) of shell pair          169
 max number of K2 of shell pair               1
 max number of CS2 of shell pair             97
 max number of PS2 of shell pair           1014
 mem total for path MDJ                  562774
 -------------------------------------------------------
 Smallest overlap matrix eigenvalue = 2.99E-04
 Guess MOs from SCF MO coefficient file
 Reading MOs from coefficient file
 Reading MOs from coefficient file
 A restricted hybrid HF-DFT SCF calculation will be
 performed using Geometric Direct Minimization
 Exchange:     0.2000 Hartree-Fock + 0.0800 Slater + 0.7200 B88
 Correlation:  0.1900 VWN1RPA + 0.8100 LYP
 Using Euler-Maclaurin-Lebedev (99,590) quadrature formula
 SCF converges when RMS gradient is below 1.0E-08
Using Q-Chem read-in guess as SCF_GUESS READ specified.

 using 8 threads for integral computing
 -------------------------------------------------------
 OpenMP Integral computing Module                
 Release: version 2.0, May 2017, Q-Chem Inc. Pleasanton 
 -------------------------------------------------------
TIMEINFO->: J/JK contribution 15.30 sec.
 -------------------------------------------------------
 OpenMP BLAS3 based DFT computing Module                
 Release: version 1.0, May 2013, Q-Chem Inc. Pittsburgh 
 -------------------------------------------------------
 ---------------------------------------
  Cycle       Energy        RMS Gradient
 ---------------------------------------
    1    -396.1235508395      7.81E-04 Normal BFGS step
TIMEINFO->: J/JK contribution 15.37 sec.
    2    -396.1235521735      1.30E-03 Normal BFGS step
TIMEINFO->: J/JK contribution 14.64 sec.
    3    -396.1235508931      5.15E-04 Line search: overstep
TIMEINFO->: J/JK contribution 15.00 sec.
    4    -396.1235530578      3.53E-04 Normal BFGS step
TIMEINFO->: J/JK contribution 14.83 sec.
    5    -396.1235533420      9.62E-05 Normal BFGS step
TIMEINFO->: J/JK contribution 14.66 sec.
    6    -396.1235534023      1.95E-05 Normal BFGS step
TIMEINFO->: J/JK contribution 15.30 sec.
    7    -396.1235534032      3.87E-06 Normal BFGS step
TIMEINFO->: J/JK contribution 14.88 sec.
    8    -396.1235534034      8.65E-07 Normal BFGS step
TIMEINFO->: J/JK contribution 14.83 sec.
    9    -396.1235534034      3.72E-07 Normal BFGS step
TIMEINFO->: J/JK contribution 15.17 sec.
   10    -396.1235534034      4.11E-08 Normal BFGS step
TIMEINFO->: J/JK contribution 13.92 sec.
   GDM::WARNING energy changes are now smaller than effective accuracy.
   GDM::        calculation will continue, but THRESH should be increased
   GDM::        or SCF_CONVERGENCE decreased.
   GDM::        effective_thresh =   1.100000000000000E-010
   11    -396.1235534034      9.45E-09 Convergence criterion met
 ---------------------------------------
 B3LYP orbitals are now ready for the XYGJ-OS calculation.
 XYGJ-OS energy = Exch (0.7731 HF  + 0.2269 Slater) + 
                  Corr (0.2754 LYP + 0.2309 VWN1RPA + 0.4364 OS-MP2)
 SCF time:  CPU 196.70 s  wall 24.61 s
 SCF   energy in the final basis set = -395.33166056
 Total energy in the final basis set = -395.33166056
 Entering Scaled Opposite Spin MP2
 NBasAux in rimp2.F =          253

 OS-MP2 job begins now...

 SOS scaling factor =  0.4
 Form (P|Q)**(-1/2)...
 
 Form (ia|P)...
 Form BiaQ = (ia|P)*(P|Q)**(-1/2)...
 Laplace quadrature loop begins
 Laplace point 1: correlation energy     =        -0.2108082362
 Laplace point 2: correlation energy     =        -0.1625151326
 Laplace point 3: correlation energy     =        -0.1306392517
 Laplace point 4: correlation energy     =        -0.1236978622
 Laplace point 5: correlation energy     =        -0.0759212244
 Laplace point 6: correlation energy     =        -0.0227755105
 Laplace point 7: correlation energy     =        -0.0015094002
 
 singles contribution not yet available for XYGJ-OS 
 Total OS-MP2 correlation energy         =        -0.7278666177

 Total XYGJ-OS energy                    =      -395.6493015515
 
 ------------------------------------------------------------------------------
                     SOSMP2        : Timing summary (seconds)
 ------------------------------------------------------------------------------
     job step          cpu (% of tot)      sys (% of tot)     wall (% of tot)
 ------------------------------------------------------------------------------
  Form inv (P|Q)    0.4416E+00 ( 6.5)   0.2000E-05 ( 5.9)   0.5551E-01 ( 6.5)
  Form (ia|P)       0.4236E+01 (62.2)   0.1800E-04 (52.9)   0.5328E+00 (62.3)
  Form  BiaQ        0.2370E+00 ( 3.5)   0.2000E-05 ( 5.9)   0.2963E-01 ( 3.5)
  LP orbitals       0.3442E+00 ( 5.1)   0.4000E-05 (11.8)   0.4309E-01 ( 5.0)
  Form  X(PQ)       0.1190E+01 (17.5)   0.6000E-05 (17.6)   0.1487E+00 (17.4)
  Increment EMP2    0.2552E+00 ( 3.7)   0.0000E+00 ( 0.0)   0.3192E-01 ( 3.7)
 ------------------------------------------------------------------------------
   Grand Totals     0.6810E+01          0.3400E-04          0.8549E+00
 ------------------------------------------------------------------------------
 
 --------------------------------------------------------------
 
                    Orbital Energies (a.u.)
 --------------------------------------------------------------
 
 Alpha MOs
 -- Occupied --
-77.101 -14.356  -6.597  -4.757  -4.757  -4.753  -0.856  -0.501
 -0.340  -0.340  -0.333
 -- Virtual --
 -0.099  -0.098   0.005   0.015   0.042   0.044   0.075   0.108
  0.108   0.117   0.117   0.118   0.203   0.203   0.209   0.269
  0.340   0.341   0.362   0.381   0.381   0.405   0.426   0.426
  0.428   0.428   0.505   0.505   0.566   0.567   0.595   0.639
  0.639   0.655   0.669   0.670   0.769   0.861   0.862   0.998
  1.111   1.292   1.292   1.314   1.314   1.366   1.366   1.376
  1.376   1.385   1.448   1.449   1.580   1.580   1.611   1.611
  1.643   1.795   1.796   1.870   1.870   1.904   1.940   1.940
  1.970   2.249   2.345   2.345   2.883   3.121   3.121   3.648
  4.248   4.549   4.549   4.645   4.645   4.714   4.714   4.719
  4.719   5.018   5.018   5.035   5.276   6.900   6.900   7.164
  7.164   7.707   9.506   9.506  10.114  11.880  19.912  19.912
 20.555  21.524  26.231  26.231  26.239  26.239  26.247  26.247
 26.261  32.446  32.446  32.579  32.579  32.892  38.093  38.093
 38.192  38.192  38.258  40.832  40.832  41.581  70.030 107.095
107.095 107.765 113.396
 --------------------------------------------------------------
 
          Ground-State Mulliken Net Atomic Charges

     Atom                 Charge (a.u.)
  ----------------------------------------
      1 N                    -0.547477
      2 P                     0.547477
  ----------------------------------------
  Sum of atomic charges =     0.000000

 -----------------------------------------------------------------
                    Cartesian Multipole Moments
 -----------------------------------------------------------------
    Charge (ESU x 10^10)
                -0.0000
    Dipole Moment (Debye)
         X       0.0000      Y      -0.0000      Z      -2.9078
       Tot       2.9078
    Quadrupole Moments (Debye-Ang)
        XX     -17.6520     XY       0.0000     YY     -17.6665
        XZ       0.0000     YZ      -0.0000     ZZ     -22.9680
    Octopole Moments (Debye-Ang^2)
       XXX      -0.0000    XXY       0.0000    XYY       0.0000
       YYY      -0.0000    XXZ      -9.5098    XYZ      -0.0000
       YYZ      -9.5124    XZZ       0.0000    YZZ      -0.0000
       ZZZ     -36.0107
    Hexadecapole Moments (Debye-Ang^3)
      XXXX     -23.1642   XXXY       0.0000   XXYY      -7.7322
      XYYY       0.0000   YYYY     -23.2289   XXXZ      -0.0000
      XXYZ       0.0000   XYYZ       0.0000   YYYZ       0.0000
      XXZZ     -21.9847   XYZZ      -0.0000   YYZZ     -22.0002
      XZZZ       0.0000   YZZZ      -0.0000   ZZZZ    -123.9153
 -----------------------------------------------------------------
Archival summary:
1\1\n0090.mhg0\SP\ProcedureUnspecified\BasisUnspecified\11\yhljason\WedOct2103:30:552020WedOct2103:30:552020\0\\#,ProcedureUnspecified,BasisUnspecified,\\0,1\N\P,1,1.4909\\\@

 Total job time:  26.17s(wall), 208.86s(cpu) 
 Wed Oct 21 03:30:55 2020

        *************************************************************
        *                                                           *
        *  Thank you very much for using Q-Chem.  Have a nice day.  *
        *                                                           *
        *************************************************************


 
User input: 4 of 7 
 
Q-Chem Developer Version!
                  Welcome to Q-Chem
     A Quantum Leap Into The Future Of Chemistry


 Q-Chem 5.1, Q-Chem, Inc., Pleasanton, CA (2018)

 Yihan Shao,  Zhengting Gan,  E. Epifanovsky,  A. T. B. Gilbert,  M. Wormit,  
 J. Kussmann,  A. W. Lange,  A. Behn,  Jia Deng,  Xintian Feng,  D. Ghosh,  
 M. Goldey,  P. R. Horn,  L. D. Jacobson,  I. Kaliman,  T. Kus,  A. Landau,  
 Jie Liu,  E. I. Proynov,  R. M. Richard,  R. P. Steele,  E. J. Sundstrom,  
 H. L. Woodcock III,  P. M. Zimmerman,  D. Zuev,  B. Albrecht,  E. Alguire,  
 S. A. Baeppler,  D. Barton,  Z. Benda,  Y. A. Bernard,  E. J. Berquist,  
 K. B. Bravaya,  H. Burton,  D. Casanova,  Chun-Min Chang,  Yunqing Chen,  
 A. Chien,  K. D. Closser,  M. P. Coons,  S. Coriani,  S. Dasgupta,  
 A. L. Dempwolff,  M. Diedenhofen,  Hainam Do,  R. G. Edgar,  Po-Tung Fang,  
 S. Faraji,  S. Fatehi,  Qingguo Feng,  K. D. Fenk,  J. Fosso-Tande,  
 Qinghui Ge,  A. Ghysels,  G. Gidofalvi,  J. Gomes,  J. Gonthier,  A. Gunina,  
 D. Hait,  M. W. D. Hanson-Heine,  P. H. P. Harbach,  A. W. Hauser,  
 J. E. Herr,  E. G. Hohenstein,  Z. C. Holden,  Kerwin Hui,  B. C. Huynh,  
 T.-C. Jagau,  Hyunjun Ji,  B. Kaduk,  K. Khistyaev,  Jaehoon Kim,  
 P. Klunzinger,  K. Koh,  D. Kosenkov,  L. Koulias,  T. Kowalczyk,  
 C. M. Krauter,  A. Kunitsa,  Ka Un Lao,  A. Laurent,  K. V. Lawler,  
 Joonho Lee,  D. Lefrancois,  S. Lehtola,  D. S. Levine,  Yi-Pei Li,  
 You-Sheng Lin,  Fenglai Liu,  E. Livshits,  A. Luenser,  P. Manohar,  
 E. Mansoor,  S. F. Manzer,  Shan-Ping Mao,  Yuezhi Mao,  N. Mardirossian,  
 A. V. Marenich,  T. Markovich,  L. A. Martinez-Martinez,  S. A. Maurer,  
 N. J. Mayhall,  S. C. McKenzie,  J.-M. Mewes,  A. F. Morrison,  
 J. W. Mullinax,  K. Nanda,  T. S. Nguyen-Beck,  R. Olivares-Amaya,  
 J. A. Parkhill,  T. M. Perrine,  F. Plasser,  P. Pokhilko,  S. Prager,  
 A. Prociuk,  E. Ramos,  D. R. Rehn,  F. Rob,  M. Schneider,  N. Sergueev,  
 S. M. Sharada,  S. Sharma,  D. W. Small,  T. Stauch,  T. Stein,  
 Yu-Chuan Su,  A. J. W. Thom,  A. Tkatchenko,  T. Tsuchimochi,  N. M. Tubman,  
 L. Vogt,  M. L. Vidal,  O. Vydrov,  M. A. Watson,  J. Wenzel,  
 M. de Wergifosse,  T. A. Wesolowski,  A. White,  J. Witte,  A. Yamada,  
 Jun Yang,  K. Yao,  S. Yeganeh,  S. R. Yost,  Zhi-Qiang You,  A. Zech,  
 Igor Ying Zhang,  Xing Zhang,  Yan Zhao,  Ying Zhu,  B. R. Brooks,  
 G. K. L. Chan,  C. J. Cramer,  M. S. Gordon,  W. J. Hehre,  A. Klamt,  
 M. W. Schmidt,  C. D. Sherrill,  D. G. Truhlar,  A. Aspuru-Guzik,  R. Baer,  
 A. T. Bell,  N. A. Besley,  Jeng-Da Chai,  A. E. DePrince, III,  
 R. A. DiStasio Jr.,  A. Dreuw,  B. D. Dunietz,  T. R. Furlani,  
 Chao-Ping Hsu,  Yousung Jung,  Jing Kong,  D. S. Lambrecht,  WanZhen Liang,  
 C. Ochsenfeld,  V. A. Rassolov,  L. V. Slipchenko,  J. E. Subotnik,  
 T. Van Voorhis,  J. M. Herbert,  A. I. Krylov,  P. M. W. Gill,  M. Head-Gordon

 Contributors to earlier versions of Q-Chem not listed above: 
 R. D. Adamson,  B. Austin,  J. Baker,  G. J. O. Beran,  K. Brandhorst,  
 S. T. Brown,  E. F. C. Byrd,  A. K. Chakraborty,  C.-L. Cheng,  
 Siu Hung Chien,  D. M. Chipman,  D. L. Crittenden,  H. Dachsel,  
 R. J. Doerksen,  A. D. Dutoi,  L. Fusti-Molnar,  W. A. Goddard III,  
 A. Golubeva-Zadorozhnaya,  S. R. Gwaltney,  G. Hawkins,  A. Heyden,  
 S. Hirata,  G. Kedziora,  F. J. Keil,  C. Kelley,  Jihan Kim,  R. A. King,  
 R. Z. Khaliullin,  P. P. Korambath,  W. Kurlancheek,  A. M. Lee,  M. S. Lee,  
 S. V. Levchenko,  Ching Yeh Lin,  D. Liotard,  R. C. Lochan,  I. Lotan,  
 P. E. Maslen,  N. Nair,  D. P. O'Neill,  D. Neuhauser,  E. Neuscamman,  
 C. M. Oana,  R. Olson,  B. Peters,  R. Peverati,  P. A. Pieniazek,  
 Y. M. Rhee,  J. Ritchie,  M. A. Rohrdanz,  E. Rosta,  N. J. Russ,  
 H. F. Schaefer III,  N. E. Schultz,  N. Shenvi,  A. C. Simmonett,  A. Sodt,  
 D. Stuck,  K. S. Thanthiriwatte,  V. Vanovschi,  Tao Wang,  A. Warshel,  
 C. F. Williams,  Q. Wu,  X. Xu,  W. Zhang

 Please cite Q-Chem as follows:
 Y. Shao et al., Mol. Phys. 113, 184-215 (2015)
 DOI: 10.1080/00268976.2014.952696

 Q-Chem 5.1.1 for Intel X86 EM64T Linux

 Parts of Q-Chem use Armadillo 8.300.2 (Tropical Shenanigans).
 http://arma.sourceforge.net/

 Q-Chem begins on Wed Oct 21 03:30:55 2020  

Host: n0090.mhg0
0

     Scratch files written to /local/scratch/users/yhljason/NP_XYGJOS_aug-cc-pcVTZ.inp20201021032920//
The previous job contains 0 fragments, simply inherited here
Input Ideriv = 2
Curr. Ideriv = -1
Max.  Ideriv = 2

Checking the input file for inconsistencies... 	...done.

--------------------------------------------------------------
User input:
--------------------------------------------------------------
$molecule
read
$end

$rem

jobtype sp
exchange XYGJOS
xc_grid 000099000590
basis aug-cc-pcVTZ
aux_basis rimp2-aug-cc-pVTZ
max_scf_cycles 200
thresh 14
scf_convergence 8
mem_total 128000
cc_memory 96000
cc_backend xm
mem_static 1500
symmetry false
sym_ignore true
scf_guess read
unrestricted false
scf_algorithm gdm
n_frozen_core 0
$end

$multipole_field
YY 0.0001
$end


--------------------------------------------------------------
 ----------------------------------------------------------------
             Standard Nuclear Orientation (Angstroms)
    I     Atom           X                Y                Z
 ----------------------------------------------------------------
    1      N       0.0000000000     0.0000000000     1.4909000000
    2      P       0.0000000000     0.0000000000     0.0000000000
 ----------------------------------------------------------------
 Nuclear Repulsion Energy =    37.2685003246 hartrees
 There are       11 alpha and       11 beta electrons
 Requested basis set is aug-cc-pCVTZ
 There are 42 shells and 134 basis functions

 Total QAlloc Memory Limit 128000 MB
 Mega-Array Size      1467 MB
 MEM_STATIC part      1500 MB

                       Distance Matrix (Angstroms)
             N (  1)
   P (  2)  1.490900
 
 Applying Cartesian multipole field
    Component          Value
    ---------          -----
     (0,2,0)        1.00000E-04
 Requested basis set is rimp2-aug-cc-pVTZ
 There are 65 shells and 253 basis functions
 A cutoff of  1.0D-14 yielded    891 shell pairs
 There are      9167 function pairs (     12817 Cartesian)
 
 -------------------------------------------------------
 OpenMP Integral Computing Module                       
 Release: version 1.0, May 2013, Q-Chem Inc. Pittsburgh 
 -------------------------------------------------------
 Integral Job Info:
 Integral job number is                      11
 Integral operator is                         1
 short-range coefficients                     0
 long-range coefficients              100000000
 Omega coefficients                           0
 if combine SR and LR in K                    0
 Integral screening is                        0
 Integral computing path is                   2
 max size of driver memory is            800000
 size of driver memory is                776718
 size of scratch memory is             29531563
 max col of scratch BK array              10000
 max len of scratch array in speh3          662
 max len of scratch index in speh4           32
 max int batch size is                      520
 min int batch size is                       52
 fixed nKL is                                31
 max L of basis functions is                  3
 order of int derivative is                   0
 number of shells is                         42
 number of basis is                         158
 number of cartesian basis is               158
 number of contracted shell pairs           891
 number of primitive shell pairs           5125
 maxK2 (contraction) of shell pair          169
 max number of K2 of shell pair               1
 max number of CS2 of shell pair             97
 max number of PS2 of shell pair           1014
 mem total for path MDJ                  562774
 -------------------------------------------------------
 Smallest overlap matrix eigenvalue = 2.99E-04
 Guess MOs from SCF MO coefficient file
 Reading MOs from coefficient file
 Reading MOs from coefficient file
 A restricted hybrid HF-DFT SCF calculation will be
 performed using Geometric Direct Minimization
 Exchange:     0.2000 Hartree-Fock + 0.0800 Slater + 0.7200 B88
 Correlation:  0.1900 VWN1RPA + 0.8100 LYP
 Using Euler-Maclaurin-Lebedev (99,590) quadrature formula
 SCF converges when RMS gradient is below 1.0E-08
Using Q-Chem read-in guess as SCF_GUESS READ specified.

 using 8 threads for integral computing
 -------------------------------------------------------
 OpenMP Integral computing Module                
 Release: version 2.0, May 2017, Q-Chem Inc. Pleasanton 
 -------------------------------------------------------
TIMEINFO->: J/JK contribution 14.91 sec.
 -------------------------------------------------------
 OpenMP BLAS3 based DFT computing Module                
 Release: version 1.0, May 2013, Q-Chem Inc. Pittsburgh 
 -------------------------------------------------------
 ---------------------------------------
  Cycle       Energy        RMS Gradient
 ---------------------------------------
    1    -396.1261792475      5.11E-04 Normal BFGS step
TIMEINFO->: J/JK contribution 14.81 sec.
    2    -396.1261794980      1.25E-03 Normal BFGS step
TIMEINFO->: J/JK contribution 14.82 sec.
    3    -396.1261794521      3.53E-04 Line search: overstep
TIMEINFO->: J/JK contribution 15.31 sec.
    4    -396.1261804017      2.10E-04 Normal BFGS step
TIMEINFO->: J/JK contribution 14.78 sec.
    5    -396.1261806028      1.30E-04 Normal BFGS step
TIMEINFO->: J/JK contribution 15.15 sec.
    6    -396.1261807125      6.15E-06 Normal BFGS step
TIMEINFO->: J/JK contribution 14.69 sec.
    7    -396.1261807129      3.27E-06 Normal BFGS step
TIMEINFO->: J/JK contribution 14.46 sec.
    8    -396.1261807130      2.22E-07 Normal BFGS step
TIMEINFO->: J/JK contribution 14.41 sec.
    9    -396.1261807130      7.99E-08 Normal BFGS step
TIMEINFO->: J/JK contribution 14.25 sec.
   10    -396.1261807130      4.03E-09 Convergence criterion met
 ---------------------------------------
 B3LYP orbitals are now ready for the XYGJ-OS calculation.
 XYGJ-OS energy = Exch (0.7731 HF  + 0.2269 Slater) + 
                  Corr (0.2754 LYP + 0.2309 VWN1RPA + 0.4364 OS-MP2)
 SCF time:  CPU 177.52 s  wall 22.20 s
 SCF   energy in the final basis set = -395.33430044
 Total energy in the final basis set = -395.33430044
 Entering Scaled Opposite Spin MP2
 NBasAux in rimp2.F =          253

 OS-MP2 job begins now...

 SOS scaling factor =  0.4
 Form (P|Q)**(-1/2)...
 
 Form (ia|P)...
 Form BiaQ = (ia|P)*(P|Q)**(-1/2)...
 Laplace quadrature loop begins
 Laplace point 1: correlation energy     =        -0.2108005398
 Laplace point 2: correlation energy     =        -0.1624987241
 Laplace point 3: correlation energy     =        -0.1306185999
 Laplace point 4: correlation energy     =        -0.1236907727
 Laplace point 5: correlation energy     =        -0.0759285894
 Laplace point 6: correlation energy     =        -0.0227825461
 Laplace point 7: correlation energy     =        -0.0015110079
 
 singles contribution not yet available for XYGJ-OS 
 Total OS-MP2 correlation energy         =        -0.7278307800

 Total XYGJ-OS energy                    =      -395.6519257878
 
 ------------------------------------------------------------------------------
                     SOSMP2        : Timing summary (seconds)
 ------------------------------------------------------------------------------
     job step          cpu (% of tot)      sys (% of tot)     wall (% of tot)
 ------------------------------------------------------------------------------
  Form inv (P|Q)    0.4454E+00 ( 6.7)   0.2000E-05 ( 5.9)   0.5592E-01 ( 6.7)
  Form (ia|P)       0.4155E+01 (62.2)   0.2100E-04 (61.8)   0.5207E+00 (62.3)
  Form  BiaQ        0.2324E+00 ( 3.5)   0.2000E-05 ( 5.9)   0.2905E-01 ( 3.5)
  LP orbitals       0.3292E+00 ( 4.9)   0.2000E-05 ( 5.9)   0.4115E-01 ( 4.9)
  Form  X(PQ)       0.1168E+01 (17.5)   0.5000E-05 (14.7)   0.1461E+00 (17.5)
  Increment EMP2    0.2407E+00 ( 3.6)   0.2000E-05 ( 5.9)   0.3010E-01 ( 3.6)
 ------------------------------------------------------------------------------
   Grand Totals     0.6675E+01          0.3400E-04          0.8359E+00
 ------------------------------------------------------------------------------
 
 --------------------------------------------------------------
 
                    Orbital Energies (a.u.)
 --------------------------------------------------------------
 
 Alpha MOs
 -- Occupied --
-77.101 -14.356  -6.597  -4.758  -4.758  -4.753  -0.857  -0.501
 -0.341  -0.340  -0.334
 -- Virtual --
 -0.099  -0.099   0.003   0.012   0.038   0.040   0.073   0.106
  0.106   0.114   0.115   0.115   0.201   0.202   0.207   0.267
  0.338   0.339   0.361   0.380   0.380   0.404   0.424   0.425
  0.427   0.427   0.503   0.503   0.565   0.565   0.594   0.638
  0.638   0.653   0.668   0.669   0.768   0.860   0.860   0.997
  1.110   1.292   1.292   1.313   1.313   1.365   1.365   1.375
  1.376   1.384   1.448   1.448   1.579   1.579   1.610   1.610
  1.642   1.795   1.795   1.869   1.869   1.904   1.939   1.939
  1.969   2.248   2.344   2.344   2.883   3.120   3.121   3.647
  4.247   4.548   4.548   4.644   4.644   4.713   4.713   4.718
  4.718   5.017   5.017   5.035   5.275   6.899   6.899   7.163
  7.163   7.706   9.505   9.506  10.113  11.879  19.911  19.911
 20.555  21.524  26.230  26.230  26.238  26.238  26.247  26.247
 26.261  32.445  32.445  32.578  32.578  32.891  38.092  38.092
 38.191  38.191  38.257  40.831  40.831  41.580  70.029 107.094
107.094 107.765 113.395
 --------------------------------------------------------------
 
          Ground-State Mulliken Net Atomic Charges

     Atom                 Charge (a.u.)
  ----------------------------------------
      1 N                    -0.545734
      2 P                     0.545734
  ----------------------------------------
  Sum of atomic charges =    -0.000000

 -----------------------------------------------------------------
                    Cartesian Multipole Moments
 -----------------------------------------------------------------
    Charge (ESU x 10^10)
                -0.0000
    Dipole Moment (Debye)
         X      -0.0000      Y       0.0000      Z      -2.9056
       Tot       2.9056
    Quadrupole Moments (Debye-Ang)
        XX     -17.6717     XY      -0.0000     YY     -17.6863
        XZ       0.0000     YZ      -0.0000     ZZ     -22.9652
    Octopole Moments (Debye-Ang^2)
       XXX      -0.0000    XXY       0.0000    XYY      -0.0000
       YYY       0.0000    XXZ      -9.5170    XYZ      -0.0000
       YYZ      -9.5197    XZZ      -0.0000    YZZ      -0.0000
       ZZZ     -36.0067
    Hexadecapole Moments (Debye-Ang^3)
      XXXX     -23.2602   XXXY      -0.0000   XXYY      -7.7643
      XYYY      -0.0000   YYYY     -23.3258   XXXZ       0.0000
      XXYZ       0.0000   XYYZ       0.0000   YYYZ       0.0000
      XXZZ     -22.0130   XYZZ      -0.0000   YYZZ     -22.0287
      XZZZ       0.0000   YZZZ      -0.0000   ZZZZ    -123.9289
 -----------------------------------------------------------------
Archival summary:
1\1\n0090.mhg0\SP\ProcedureUnspecified\BasisUnspecified\11\yhljason\WedOct2103:31:192020WedOct2103:31:192020\0\\#,ProcedureUnspecified,BasisUnspecified,\\0,1\N\P,1,1.4909\\\@

 Total job time:  23.78s(wall), 189.56s(cpu) 
 Wed Oct 21 03:31:19 2020

        *************************************************************
        *                                                           *
        *  Thank you very much for using Q-Chem.  Have a nice day.  *
        *                                                           *
        *************************************************************


 
User input: 5 of 7 
 
Q-Chem Developer Version!
                  Welcome to Q-Chem
     A Quantum Leap Into The Future Of Chemistry


 Q-Chem 5.1, Q-Chem, Inc., Pleasanton, CA (2018)

 Yihan Shao,  Zhengting Gan,  E. Epifanovsky,  A. T. B. Gilbert,  M. Wormit,  
 J. Kussmann,  A. W. Lange,  A. Behn,  Jia Deng,  Xintian Feng,  D. Ghosh,  
 M. Goldey,  P. R. Horn,  L. D. Jacobson,  I. Kaliman,  T. Kus,  A. Landau,  
 Jie Liu,  E. I. Proynov,  R. M. Richard,  R. P. Steele,  E. J. Sundstrom,  
 H. L. Woodcock III,  P. M. Zimmerman,  D. Zuev,  B. Albrecht,  E. Alguire,  
 S. A. Baeppler,  D. Barton,  Z. Benda,  Y. A. Bernard,  E. J. Berquist,  
 K. B. Bravaya,  H. Burton,  D. Casanova,  Chun-Min Chang,  Yunqing Chen,  
 A. Chien,  K. D. Closser,  M. P. Coons,  S. Coriani,  S. Dasgupta,  
 A. L. Dempwolff,  M. Diedenhofen,  Hainam Do,  R. G. Edgar,  Po-Tung Fang,  
 S. Faraji,  S. Fatehi,  Qingguo Feng,  K. D. Fenk,  J. Fosso-Tande,  
 Qinghui Ge,  A. Ghysels,  G. Gidofalvi,  J. Gomes,  J. Gonthier,  A. Gunina,  
 D. Hait,  M. W. D. Hanson-Heine,  P. H. P. Harbach,  A. W. Hauser,  
 J. E. Herr,  E. G. Hohenstein,  Z. C. Holden,  Kerwin Hui,  B. C. Huynh,  
 T.-C. Jagau,  Hyunjun Ji,  B. Kaduk,  K. Khistyaev,  Jaehoon Kim,  
 P. Klunzinger,  K. Koh,  D. Kosenkov,  L. Koulias,  T. Kowalczyk,  
 C. M. Krauter,  A. Kunitsa,  Ka Un Lao,  A. Laurent,  K. V. Lawler,  
 Joonho Lee,  D. Lefrancois,  S. Lehtola,  D. S. Levine,  Yi-Pei Li,  
 You-Sheng Lin,  Fenglai Liu,  E. Livshits,  A. Luenser,  P. Manohar,  
 E. Mansoor,  S. F. Manzer,  Shan-Ping Mao,  Yuezhi Mao,  N. Mardirossian,  
 A. V. Marenich,  T. Markovich,  L. A. Martinez-Martinez,  S. A. Maurer,  
 N. J. Mayhall,  S. C. McKenzie,  J.-M. Mewes,  A. F. Morrison,  
 J. W. Mullinax,  K. Nanda,  T. S. Nguyen-Beck,  R. Olivares-Amaya,  
 J. A. Parkhill,  T. M. Perrine,  F. Plasser,  P. Pokhilko,  S. Prager,  
 A. Prociuk,  E. Ramos,  D. R. Rehn,  F. Rob,  M. Schneider,  N. Sergueev,  
 S. M. Sharada,  S. Sharma,  D. W. Small,  T. Stauch,  T. Stein,  
 Yu-Chuan Su,  A. J. W. Thom,  A. Tkatchenko,  T. Tsuchimochi,  N. M. Tubman,  
 L. Vogt,  M. L. Vidal,  O. Vydrov,  M. A. Watson,  J. Wenzel,  
 M. de Wergifosse,  T. A. Wesolowski,  A. White,  J. Witte,  A. Yamada,  
 Jun Yang,  K. Yao,  S. Yeganeh,  S. R. Yost,  Zhi-Qiang You,  A. Zech,  
 Igor Ying Zhang,  Xing Zhang,  Yan Zhao,  Ying Zhu,  B. R. Brooks,  
 G. K. L. Chan,  C. J. Cramer,  M. S. Gordon,  W. J. Hehre,  A. Klamt,  
 M. W. Schmidt,  C. D. Sherrill,  D. G. Truhlar,  A. Aspuru-Guzik,  R. Baer,  
 A. T. Bell,  N. A. Besley,  Jeng-Da Chai,  A. E. DePrince, III,  
 R. A. DiStasio Jr.,  A. Dreuw,  B. D. Dunietz,  T. R. Furlani,  
 Chao-Ping Hsu,  Yousung Jung,  Jing Kong,  D. S. Lambrecht,  WanZhen Liang,  
 C. Ochsenfeld,  V. A. Rassolov,  L. V. Slipchenko,  J. E. Subotnik,  
 T. Van Voorhis,  J. M. Herbert,  A. I. Krylov,  P. M. W. Gill,  M. Head-Gordon

 Contributors to earlier versions of Q-Chem not listed above: 
 R. D. Adamson,  B. Austin,  J. Baker,  G. J. O. Beran,  K. Brandhorst,  
 S. T. Brown,  E. F. C. Byrd,  A. K. Chakraborty,  C.-L. Cheng,  
 Siu Hung Chien,  D. M. Chipman,  D. L. Crittenden,  H. Dachsel,  
 R. J. Doerksen,  A. D. Dutoi,  L. Fusti-Molnar,  W. A. Goddard III,  
 A. Golubeva-Zadorozhnaya,  S. R. Gwaltney,  G. Hawkins,  A. Heyden,  
 S. Hirata,  G. Kedziora,  F. J. Keil,  C. Kelley,  Jihan Kim,  R. A. King,  
 R. Z. Khaliullin,  P. P. Korambath,  W. Kurlancheek,  A. M. Lee,  M. S. Lee,  
 S. V. Levchenko,  Ching Yeh Lin,  D. Liotard,  R. C. Lochan,  I. Lotan,  
 P. E. Maslen,  N. Nair,  D. P. O'Neill,  D. Neuhauser,  E. Neuscamman,  
 C. M. Oana,  R. Olson,  B. Peters,  R. Peverati,  P. A. Pieniazek,  
 Y. M. Rhee,  J. Ritchie,  M. A. Rohrdanz,  E. Rosta,  N. J. Russ,  
 H. F. Schaefer III,  N. E. Schultz,  N. Shenvi,  A. C. Simmonett,  A. Sodt,  
 D. Stuck,  K. S. Thanthiriwatte,  V. Vanovschi,  Tao Wang,  A. Warshel,  
 C. F. Williams,  Q. Wu,  X. Xu,  W. Zhang

 Please cite Q-Chem as follows:
 Y. Shao et al., Mol. Phys. 113, 184-215 (2015)
 DOI: 10.1080/00268976.2014.952696

 Q-Chem 5.1.1 for Intel X86 EM64T Linux

 Parts of Q-Chem use Armadillo 8.300.2 (Tropical Shenanigans).
 http://arma.sourceforge.net/

 Q-Chem begins on Wed Oct 21 03:31:19 2020  

Host: n0090.mhg0
0

     Scratch files written to /local/scratch/users/yhljason/NP_XYGJOS_aug-cc-pcVTZ.inp20201021032920//
The previous job contains 0 fragments, simply inherited here
Input Ideriv = 2
Curr. Ideriv = -1
Max.  Ideriv = 2

Checking the input file for inconsistencies... 	...done.

--------------------------------------------------------------
User input:
--------------------------------------------------------------
$molecule
read
$end

$rem

jobtype sp
exchange XYGJOS
xc_grid 000099000590
basis aug-cc-pcVTZ
aux_basis rimp2-aug-cc-pVTZ
max_scf_cycles 200
thresh 14
scf_convergence 8
mem_total 128000
cc_memory 96000
cc_backend xm
mem_static 1500
symmetry false
sym_ignore true
scf_guess read
unrestricted false
scf_algorithm gdm
n_frozen_core 0
$end

$multipole_field
YY -0.0001
$end


--------------------------------------------------------------
 ----------------------------------------------------------------
             Standard Nuclear Orientation (Angstroms)
    I     Atom           X                Y                Z
 ----------------------------------------------------------------
    1      N       0.0000000000     0.0000000000     1.4909000000
    2      P       0.0000000000     0.0000000000     0.0000000000
 ----------------------------------------------------------------
 Nuclear Repulsion Energy =    37.2685003246 hartrees
 There are       11 alpha and       11 beta electrons
 Requested basis set is aug-cc-pCVTZ
 There are 42 shells and 134 basis functions

 Total QAlloc Memory Limit 128000 MB
 Mega-Array Size      1467 MB
 MEM_STATIC part      1500 MB

                       Distance Matrix (Angstroms)
             N (  1)
   P (  2)  1.490900
 
 Applying Cartesian multipole field
    Component          Value
    ---------          -----
     (0,2,0)       -1.00000E-04
 Requested basis set is rimp2-aug-cc-pVTZ
 There are 65 shells and 253 basis functions
 A cutoff of  1.0D-14 yielded    891 shell pairs
 There are      9167 function pairs (     12817 Cartesian)
 
 -------------------------------------------------------
 OpenMP Integral Computing Module                       
 Release: version 1.0, May 2013, Q-Chem Inc. Pittsburgh 
 -------------------------------------------------------
 Integral Job Info:
 Integral job number is                      11
 Integral operator is                         1
 short-range coefficients                     0
 long-range coefficients              100000000
 Omega coefficients                           0
 if combine SR and LR in K                    0
 Integral screening is                        0
 Integral computing path is                   2
 max size of driver memory is            800000
 size of driver memory is                776718
 size of scratch memory is             29531563
 max col of scratch BK array              10000
 max len of scratch array in speh3          662
 max len of scratch index in speh4           32
 max int batch size is                      520
 min int batch size is                       52
 fixed nKL is                                31
 max L of basis functions is                  3
 order of int derivative is                   0
 number of shells is                         42
 number of basis is                         158
 number of cartesian basis is               158
 number of contracted shell pairs           891
 number of primitive shell pairs           5125
 maxK2 (contraction) of shell pair          169
 max number of K2 of shell pair               1
 max number of CS2 of shell pair             97
 max number of PS2 of shell pair           1014
 mem total for path MDJ                  562774
 -------------------------------------------------------
 Smallest overlap matrix eigenvalue = 2.99E-04
 Guess MOs from SCF MO coefficient file
 Reading MOs from coefficient file
 Reading MOs from coefficient file
 A restricted hybrid HF-DFT SCF calculation will be
 performed using Geometric Direct Minimization
 Exchange:     0.2000 Hartree-Fock + 0.0800 Slater + 0.7200 B88
 Correlation:  0.1900 VWN1RPA + 0.8100 LYP
 Using Euler-Maclaurin-Lebedev (99,590) quadrature formula
 SCF converges when RMS gradient is below 1.0E-08
Using Q-Chem read-in guess as SCF_GUESS READ specified.

 using 8 threads for integral computing
 -------------------------------------------------------
 OpenMP Integral computing Module                
 Release: version 2.0, May 2017, Q-Chem Inc. Pleasanton 
 -------------------------------------------------------
TIMEINFO->: J/JK contribution 15.78 sec.
 -------------------------------------------------------
 OpenMP BLAS3 based DFT computing Module                
 Release: version 1.0, May 2013, Q-Chem Inc. Pittsburgh 
 -------------------------------------------------------
 ---------------------------------------
  Cycle       Energy        RMS Gradient
 ---------------------------------------
    1    -396.1235508395      7.81E-04 Normal BFGS step
TIMEINFO->: J/JK contribution 15.05 sec.
    2    -396.1235521735      1.30E-03 Normal BFGS step
TIMEINFO->: J/JK contribution 14.92 sec.
    3    -396.1235508931      5.15E-04 Line search: overstep
TIMEINFO->: J/JK contribution 15.31 sec.
    4    -396.1235530578      3.53E-04 Normal BFGS step
TIMEINFO->: J/JK contribution 14.54 sec.
    5    -396.1235533420      9.62E-05 Normal BFGS step
TIMEINFO->: J/JK contribution 14.90 sec.
    6    -396.1235534023      1.95E-05 Normal BFGS step
TIMEINFO->: J/JK contribution 14.63 sec.
    7    -396.1235534032      3.87E-06 Normal BFGS step
TIMEINFO->: J/JK contribution 14.38 sec.
    8    -396.1235534034      8.65E-07 Normal BFGS step
TIMEINFO->: J/JK contribution 14.87 sec.
    9    -396.1235534034      3.72E-07 Normal BFGS step
TIMEINFO->: J/JK contribution 14.74 sec.
   10    -396.1235534034      4.11E-08 Normal BFGS step
TIMEINFO->: J/JK contribution 14.16 sec.
   GDM::WARNING energy changes are now smaller than effective accuracy.
   GDM::        calculation will continue, but THRESH should be increased
   GDM::        or SCF_CONVERGENCE decreased.
   GDM::        effective_thresh =   1.757397283252971E-010
   11    -396.1235534034      9.45E-09 Convergence criterion met
 ---------------------------------------
 B3LYP orbitals are now ready for the XYGJ-OS calculation.
 XYGJ-OS energy = Exch (0.7731 HF  + 0.2269 Slater) + 
                  Corr (0.2754 LYP + 0.2309 VWN1RPA + 0.4364 OS-MP2)
 SCF time:  CPU 195.68 s  wall 24.49 s
 SCF   energy in the final basis set = -395.33166056
 Total energy in the final basis set = -395.33166056
 Entering Scaled Opposite Spin MP2
 NBasAux in rimp2.F =          253

 OS-MP2 job begins now...

 SOS scaling factor =  0.4
 Form (P|Q)**(-1/2)...
 
 Form (ia|P)...
 Form BiaQ = (ia|P)*(P|Q)**(-1/2)...
 Laplace quadrature loop begins
 Laplace point 1: correlation energy     =        -0.2108082362
 Laplace point 2: correlation energy     =        -0.1625151326
 Laplace point 3: correlation energy     =        -0.1306392517
 Laplace point 4: correlation energy     =        -0.1236978622
 Laplace point 5: correlation energy     =        -0.0759212244
 Laplace point 6: correlation energy     =        -0.0227755105
 Laplace point 7: correlation energy     =        -0.0015094002
 
 singles contribution not yet available for XYGJ-OS 
 Total OS-MP2 correlation energy         =        -0.7278666177

 Total XYGJ-OS energy                    =      -395.6493015515
 
 ------------------------------------------------------------------------------
                     SOSMP2        : Timing summary (seconds)
 ------------------------------------------------------------------------------
     job step          cpu (% of tot)      sys (% of tot)     wall (% of tot)
 ------------------------------------------------------------------------------
  Form inv (P|Q)    0.4423E+00 ( 6.6)   0.3000E-05 ( 8.8)   0.5553E-01 ( 6.6)
  Form (ia|P)       0.4134E+01 (61.4)   0.2000E-04 (58.8)   0.5178E+00 (61.4)
  Form  BiaQ        0.2461E+00 ( 3.7)   0.2000E-05 ( 5.9)   0.3076E-01 ( 3.7)
  LP orbitals       0.3496E+00 ( 5.2)   0.1000E-05 ( 2.9)   0.4378E-01 ( 5.2)
  Form  X(PQ)       0.1195E+01 (17.7)   0.8000E-05 (23.5)   0.1494E+00 (17.7)
  Increment EMP2    0.2574E+00 ( 3.8)   0.0000E+00 ( 0.0)   0.3219E-01 ( 3.8)
 ------------------------------------------------------------------------------
   Grand Totals     0.6731E+01          0.3400E-04          0.8427E+00
 ------------------------------------------------------------------------------
 
 --------------------------------------------------------------
 
                    Orbital Energies (a.u.)
 --------------------------------------------------------------
 
 Alpha MOs
 -- Occupied --
-77.101 -14.356  -6.597  -4.757  -4.757  -4.753  -0.856  -0.501
 -0.340  -0.340  -0.333
 -- Virtual --
 -0.099  -0.098   0.005   0.015   0.042   0.044   0.075   0.108
  0.108   0.117   0.117   0.118   0.203   0.203   0.209   0.269
  0.340   0.341   0.362   0.381   0.381   0.405   0.426   0.426
  0.428   0.428   0.505   0.505   0.566   0.567   0.595   0.639
  0.639   0.655   0.669   0.670   0.769   0.861   0.862   0.998
  1.111   1.292   1.292   1.314   1.314   1.366   1.366   1.376
  1.376   1.385   1.448   1.449   1.580   1.580   1.611   1.611
  1.643   1.795   1.796   1.870   1.870   1.904   1.940   1.940
  1.970   2.249   2.345   2.345   2.883   3.121   3.121   3.648
  4.248   4.549   4.549   4.645   4.645   4.714   4.714   4.719
  4.719   5.018   5.018   5.035   5.276   6.900   6.900   7.164
  7.164   7.707   9.506   9.506  10.114  11.880  19.912  19.912
 20.555  21.524  26.231  26.231  26.239  26.239  26.247  26.247
 26.261  32.446  32.446  32.579  32.579  32.892  38.093  38.093
 38.192  38.192  38.258  40.832  40.832  41.581  70.030 107.095
[...]
 ------------------------------------------------------------------------------
   Grand Totals     0.6668E+01          0.3700E-04          0.8349E+00
 ------------------------------------------------------------------------------
 
 --------------------------------------------------------------
 
                    Orbital Energies (a.u.)
 --------------------------------------------------------------
 
 Alpha MOs
 -- Occupied --
-77.102 -14.357  -6.598  -4.758  -4.758  -4.754  -0.857  -0.502
 -0.341  -0.341  -0.334
 -- Virtual --
 -0.100  -0.100   0.002   0.012   0.040   0.040   0.071   0.106
  0.106   0.113   0.113   0.113   0.201   0.201   0.206   0.266
  0.338   0.338   0.360   0.380   0.380   0.402   0.424   0.424
  0.427   0.427   0.504   0.504   0.564   0.564   0.593   0.637
  0.637   0.652   0.668   0.668   0.767   0.859   0.859   0.997
  1.109   1.291   1.291   1.313   1.313   1.365   1.365   1.375
  1.375   1.383   1.447   1.447   1.578   1.578   1.610   1.610
  1.641   1.794   1.794   1.869   1.869   1.903   1.939   1.939
  1.968   2.248   2.344   2.344   2.882   3.120   3.120   3.647
  4.247   4.548   4.548   4.644   4.644   4.713   4.713   4.717
  4.717   5.017   5.017   5.034   5.275   6.899   6.899   7.163
  7.163   7.706   9.505   9.505  10.113  11.879  19.911  19.911
 20.554  21.523  26.230  26.230  26.238  26.238  26.246  26.246
 26.260  32.445  32.445  32.577  32.577  32.891  38.092  38.092
 38.191  38.191  38.257  40.831  40.831  41.580  70.029 107.094
107.094 107.764 113.395
 --------------------------------------------------------------
 
          Ground-State Mulliken Net Atomic Charges

     Atom                 Charge (a.u.)
  ----------------------------------------
      1 N                    -0.549180
      2 P                     0.549180
  ----------------------------------------
  Sum of atomic charges =    -0.000000

 -----------------------------------------------------------------
                    Cartesian Multipole Moments
 -----------------------------------------------------------------
    Charge (ESU x 10^10)
                 0.0000
    Dipole Moment (Debye)
         X      -0.0000      Y       0.0000      Z      -2.9267
       Tot       2.9267
    Quadrupole Moments (Debye-Ang)
        XX     -17.6677     XY      -0.0000     YY     -17.6677
        XZ      -0.0000     YZ       0.0000     ZZ     -23.0302
    Octopole Moments (Debye-Ang^2)
       XXX      -0.0000    XXY       0.0000    XYY      -0.0000
       YYY       0.0000    XXZ      -9.5297    XYZ      -0.0000
       YYZ      -9.5297    XZZ      -0.0000    YZZ       0.0000
       ZZZ     -36.1598
    Hexadecapole Moments (Debye-Ang^3)
      XXXX     -23.2435   XXXY      -0.0000   XXYY      -7.7478
      XYYY      -0.0000   YYYY     -23.2435   XXXZ       0.0000
      XXYZ       0.0000   XYYZ       0.0000   YYYZ       0.0000
      XXZZ     -22.0536   XYZZ      -0.0000   YYZZ     -22.0536
      XZZZ       0.0000   YZZZ       0.0000   ZZZZ    -124.4204
 -----------------------------------------------------------------
Archival summary:
1\1\n0090.mhg0\SP\ProcedureUnspecified\BasisUnspecified\11\yhljason\WedOct2103:32:112020WedOct2103:32:112020\0\\#,ProcedureUnspecified,BasisUnspecified,\\0,1\N\P,1,1.4909\\\@

 Total job time:  25.80s(wall), 205.66s(cpu) 
 Wed Oct 21 03:32:11 2020

        *************************************************************
        *                                                           *
        *  Thank you very much for using Q-Chem.  Have a nice day.  *
        *                                                           *
        *************************************************************


 
User input: 7 of 7 
 
Q-Chem Developer Version!
                  Welcome to Q-Chem
     A Quantum Leap Into The Future Of Chemistry


 Q-Chem 5.1, Q-Chem, Inc., Pleasanton, CA (2018)

 Yihan Shao,  Zhengting Gan,  E. Epifanovsky,  A. T. B. Gilbert,  M. Wormit,  
 J. Kussmann,  A. W. Lange,  A. Behn,  Jia Deng,  Xintian Feng,  D. Ghosh,  
 M. Goldey,  P. R. Horn,  L. D. Jacobson,  I. Kaliman,  T. Kus,  A. Landau,  
 Jie Liu,  E. I. Proynov,  R. M. Richard,  R. P. Steele,  E. J. Sundstrom,  
 H. L. Woodcock III,  P. M. Zimmerman,  D. Zuev,  B. Albrecht,  E. Alguire,  
 S. A. Baeppler,  D. Barton,  Z. Benda,  Y. A. Bernard,  E. J. Berquist,  
 K. B. Bravaya,  H. Burton,  D. Casanova,  Chun-Min Chang,  Yunqing Chen,  
 A. Chien,  K. D. Closser,  M. P. Coons,  S. Coriani,  S. Dasgupta,  
 A. L. Dempwolff,  M. Diedenhofen,  Hainam Do,  R. G. Edgar,  Po-Tung Fang,  
 S. Faraji,  S. Fatehi,  Qingguo Feng,  K. D. Fenk,  J. Fosso-Tande,  
 Qinghui Ge,  A. Ghysels,  G. Gidofalvi,  J. Gomes,  J. Gonthier,  A. Gunina,  
 D. Hait,  M. W. D. Hanson-Heine,  P. H. P. Harbach,  A. W. Hauser,  
 J. E. Herr,  E. G. Hohenstein,  Z. C. Holden,  Kerwin Hui,  B. C. Huynh,  
 T.-C. Jagau,  Hyunjun Ji,  B. Kaduk,  K. Khistyaev,  Jaehoon Kim,  
 P. Klunzinger,  K. Koh,  D. Kosenkov,  L. Koulias,  T. Kowalczyk,  
 C. M. Krauter,  A. Kunitsa,  Ka Un Lao,  A. Laurent,  K. V. Lawler,  
 Joonho Lee,  D. Lefrancois,  S. Lehtola,  D. S. Levine,  Yi-Pei Li,  
 You-Sheng Lin,  Fenglai Liu,  E. Livshits,  A. Luenser,  P. Manohar,  
 E. Mansoor,  S. F. Manzer,  Shan-Ping Mao,  Yuezhi Mao,  N. Mardirossian,  
 A. V. Marenich,  T. Markovich,  L. A. Martinez-Martinez,  S. A. Maurer,  
 N. J. Mayhall,  S. C. McKenzie,  J.-M. Mewes,  A. F. Morrison,  
 J. W. Mullinax,  K. Nanda,  T. S. Nguyen-Beck,  R. Olivares-Amaya,  
 J. A. Parkhill,  T. M. Perrine,  F. Plasser,  P. Pokhilko,  S. Prager,  
 A. Prociuk,  E. Ramos,  D. R. Rehn,  F. Rob,  M. Schneider,  N. Sergueev,  
 S. M. Sharada,  S. Sharma,  D. W. Small,  T. Stauch,  T. Stein,  
 Yu-Chuan Su,  A. J. W. Thom,  A. Tkatchenko,  T. Tsuchimochi,  N. M. Tubman,  
 L. Vogt,  M. L. Vidal,  O. Vydrov,  M. A. Watson,  J. Wenzel,  
 M. de Wergifosse,  T. A. Wesolowski,  A. White,  J. Witte,  A. Yamada,  
 Jun Yang,  K. Yao,  S. Yeganeh,  S. R. Yost,  Zhi-Qiang You,  A. Zech,  
 Igor Ying Zhang,  Xing Zhang,  Yan Zhao,  Ying Zhu,  B. R. Brooks,  
 G. K. L. Chan,  C. J. Cramer,  M. S. Gordon,  W. J. Hehre,  A. Klamt,  
 M. W. Schmidt,  C. D. Sherrill,  D. G. Truhlar,  A. Aspuru-Guzik,  R. Baer,  
 A. T. Bell,  N. A. Besley,  Jeng-Da Chai,  A. E. DePrince, III,  
 R. A. DiStasio Jr.,  A. Dreuw,  B. D. Dunietz,  T. R. Furlani,  
 Chao-Ping Hsu,  Yousung Jung,  Jing Kong,  D. S. Lambrecht,  WanZhen Liang,  
 C. Ochsenfeld,  V. A. Rassolov,  L. V. Slipchenko,  J. E. Subotnik,  
 T. Van Voorhis,  J. M. Herbert,  A. I. Krylov,  P. M. W. Gill,  M. Head-Gordon

 Contributors to earlier versions of Q-Chem not listed above: 
 R. D. Adamson,  B. Austin,  J. Baker,  G. J. O. Beran,  K. Brandhorst,  
 S. T. Brown,  E. F. C. Byrd,  A. K. Chakraborty,  C.-L. Cheng,  
 Siu Hung Chien,  D. M. Chipman,  D. L. Crittenden,  H. Dachsel,  
 R. J. Doerksen,  A. D. Dutoi,  L. Fusti-Molnar,  W. A. Goddard III,  
 A. Golubeva-Zadorozhnaya,  S. R. Gwaltney,  G. Hawkins,  A. Heyden,  
 S. Hirata,  G. Kedziora,  F. J. Keil,  C. Kelley,  Jihan Kim,  R. A. King,  
 R. Z. Khaliullin,  P. P. Korambath,  W. Kurlancheek,  A. M. Lee,  M. S. Lee,  
 S. V. Levchenko,  Ching Yeh Lin,  D. Liotard,  R. C. Lochan,  I. Lotan,  
 P. E. Maslen,  N. Nair,  D. P. O'Neill,  D. Neuhauser,  E. Neuscamman,  
 C. M. Oana,  R. Olson,  B. Peters,  R. Peverati,  P. A. Pieniazek,  
 Y. M. Rhee,  J. Ritchie,  M. A. Rohrdanz,  E. Rosta,  N. J. Russ,  
 H. F. Schaefer III,  N. E. Schultz,  N. Shenvi,  A. C. Simmonett,  A. Sodt,  
 D. Stuck,  K. S. Thanthiriwatte,  V. Vanovschi,  Tao Wang,  A. Warshel,  
 C. F. Williams,  Q. Wu,  X. Xu,  W. Zhang

 Please cite Q-Chem as follows:
 Y. Shao et al., Mol. Phys. 113, 184-215 (2015)
 DOI: 10.1080/00268976.2014.952696

 Q-Chem 5.1.1 for Intel X86 EM64T Linux

 Parts of Q-Chem use Armadillo 8.300.2 (Tropical Shenanigans).
 http://arma.sourceforge.net/

 Q-Chem begins on Wed Oct 21 03:32:11 2020  

Host: n0090.mhg0
0

     Scratch files written to /local/scratch/users/yhljason/NP_XYGJOS_aug-cc-pcVTZ.inp20201021032920//
The previous job contains 0 fragments, simply inherited here
Input Ideriv = 2
Curr. Ideriv = -1
Max.  Ideriv = 2

Checking the input file for inconsistencies... 	...done.

--------------------------------------------------------------
User input:
--------------------------------------------------------------
$molecule
read
$end

$rem

jobtype sp
exchange XYGJOS
xc_grid 000099000590
basis aug-cc-pcVTZ
aux_basis rimp2-aug-cc-pVTZ
max_scf_cycles 200
thresh 14
scf_convergence 8
mem_total 128000
cc_memory 96000
cc_backend xm
mem_static 1500
symmetry false
sym_ignore true
scf_guess read
unrestricted false
scf_algorithm gdm
n_frozen_core 0
$end

$multipole_field
ZZ -0.0001
$end

--------------------------------------------------------------
 ----------------------------------------------------------------
             Standard Nuclear Orientation (Angstroms)
    I     Atom           X                Y                Z
 ----------------------------------------------------------------
    1      N       0.0000000000     0.0000000000     1.4909000000
    2      P       0.0000000000     0.0000000000     0.0000000000
 ----------------------------------------------------------------
 Nuclear Repulsion Energy =    37.2685003246 hartrees
 There are       11 alpha and       11 beta electrons
 Requested basis set is aug-cc-pCVTZ
 There are 42 shells and 134 basis functions

 Total QAlloc Memory Limit 128000 MB
 Mega-Array Size      1467 MB
 MEM_STATIC part      1500 MB

                       Distance Matrix (Angstroms)
             N (  1)
   P (  2)  1.490900
 
 Applying Cartesian multipole field
    Component          Value
    ---------          -----
     (0,0,2)       -1.00000E-04
 Nucleus-field energy     =    -0.0055563911 hartrees
 Requested basis set is rimp2-aug-cc-pVTZ
 There are 65 shells and 253 basis functions
 A cutoff of  1.0D-14 yielded    891 shell pairs
 There are      9167 function pairs (     12817 Cartesian)
 
 -------------------------------------------------------
 OpenMP Integral Computing Module                       
 Release: version 1.0, May 2013, Q-Chem Inc. Pittsburgh 
 -------------------------------------------------------
 Integral Job Info:
 Integral job number is                      11
 Integral operator is                         1
 short-range coefficients                     0
 long-range coefficients              100000000
 Omega coefficients                           0
 if combine SR and LR in K                    0
 Integral screening is                        0
 Integral computing path is                   2
 max size of driver memory is            800000
 size of driver memory is                776718
 size of scratch memory is             29531563
 max col of scratch BK array              10000
 max len of scratch array in speh3          662
 max len of scratch index in speh4           32
 max int batch size is                      520
 min int batch size is                       52
 fixed nKL is                                31
 max L of basis functions is                  3
 order of int derivative is                   0
 number of shells is                         42
 number of basis is                         158
 number of cartesian basis is               158
 number of contracted shell pairs           891
 number of primitive shell pairs           5125
 maxK2 (contraction) of shell pair          169
 max number of K2 of shell pair               1
 max number of CS2 of shell pair             97
 max number of PS2 of shell pair           1014
 mem total for path MDJ                  562774
 -------------------------------------------------------
 Smallest overlap matrix eigenvalue = 2.99E-04
 Guess MOs from SCF MO coefficient file
 Reading MOs from coefficient file
 Reading MOs from coefficient file
 A restricted hybrid HF-DFT SCF calculation will be
 performed using Geometric Direct Minimization
 Exchange:     0.2000 Hartree-Fock + 0.0800 Slater + 0.7200 B88
 Correlation:  0.1900 VWN1RPA + 0.8100 LYP
 Using Euler-Maclaurin-Lebedev (99,590) quadrature formula
 SCF converges when RMS gradient is below 1.0E-08
Using Q-Chem read-in guess as SCF_GUESS READ specified.

 using 8 threads for integral computing
 -------------------------------------------------------
 OpenMP Integral computing Module                
 Release: version 2.0, May 2017, Q-Chem Inc. Pleasanton 
 -------------------------------------------------------
TIMEINFO->: J/JK contribution 14.74 sec.
 -------------------------------------------------------
 OpenMP BLAS3 based DFT computing Module                
 Release: version 1.0, May 2013, Q-Chem Inc. Pittsburgh 
 -------------------------------------------------------
 ---------------------------------------
  Cycle       Energy        RMS Gradient
 ---------------------------------------
    1    -396.1231518172      1.85E-03 Normal BFGS step
TIMEINFO->: J/JK contribution 15.55 sec.
    2    -396.1231439780      1.76E-03 Line search: overstep
TIMEINFO->: J/JK contribution 14.81 sec.
    3    -396.1231577378      9.08E-04 Normal BFGS step
TIMEINFO->: J/JK contribution 14.91 sec.
    4    -396.1231568643      4.28E-04 Line search: overstep
TIMEINFO->: J/JK contribution 15.35 sec.
    5    -396.1231608963      2.96E-04 Normal BFGS step
TIMEINFO->: J/JK contribution 14.57 sec.
    6    -396.1231612096      6.80E-05 Normal BFGS step
TIMEINFO->: J/JK contribution 14.77 sec.
    7    -396.1231612548      5.75E-06 Normal BFGS step
TIMEINFO->: J/JK contribution 14.57 sec.
    8    -396.1231612552      1.69E-06 Normal BFGS step
TIMEINFO->: J/JK contribution 14.35 sec.
    9    -396.1231612553      1.85E-07 Normal BFGS step
TIMEINFO->: J/JK contribution 14.67 sec.
   GDM::WARNING energy changes are now smaller than effective accuracy.
   GDM::        calculation will continue, but THRESH should be increased
   GDM::        or SCF_CONVERGENCE decreased.
   GDM::        effective_thresh =   1.535656102280569E-009
   10    -396.1231612553      4.85E-08 Normal BFGS step
TIMEINFO->: J/JK contribution 14.37 sec.
   11    -396.1231612553      5.22E-09 Convergence criterion met
 ---------------------------------------
 B3LYP orbitals are now ready for the XYGJ-OS calculation.
 XYGJ-OS energy = Exch (0.7731 HF  + 0.2269 Slater) + 
                  Corr (0.2754 LYP + 0.2309 VWN1RPA + 0.4364 OS-MP2)
 SCF time:  CPU 194.69 s  wall 24.37 s
 SCF   energy in the final basis set = -395.33126254
 Total energy in the final basis set = -395.33126254
 Entering Scaled Opposite Spin MP2
 NBasAux in rimp2.F =          253

 OS-MP2 job begins now...

 SOS scaling factor =  0.4
 Form (P|Q)**(-1/2)...
 
 Form (ia|P)...
 Form BiaQ = (ia|P)*(P|Q)**(-1/2)...
 Laplace quadrature loop begins
 Laplace point 1: correlation energy     =        -0.2108065632
 Laplace point 2: correlation energy     =        -0.1625090843
 Laplace point 3: correlation energy     =        -0.1306328420
 Laplace point 4: correlation energy     =        -0.1237053118
 Laplace point 5: correlation energy     =        -0.0759466947
 Laplace point 6: correlation energy     =        -0.0227931258
 Laplace point 7: correlation energy     =        -0.0015111914
 
 singles contribution not yet available for XYGJ-OS 
 Total OS-MP2 correlation energy         =        -0.7279048133

 Total XYGJ-OS energy                    =      -395.6489201990
 
 ------------------------------------------------------------------------------
                     SOSMP2        : Timing summary (seconds)
 ------------------------------------------------------------------------------
     job step          cpu (% of tot)      sys (% of tot)     wall (% of tot)
 ------------------------------------------------------------------------------
  Form inv (P|Q)    0.4575E+00 ( 6.8)   0.3000E-05 ( 7.9)   0.5763E-01 ( 6.8)
  Form (ia|P)       0.4181E+01 (61.8)   0.1900E-04 (50.0)   0.5239E+00 (61.8)
  Form  BiaQ        0.2373E+00 ( 3.5)   0.2000E-05 ( 5.3)   0.2966E-01 ( 3.5)
  LP orbitals       0.3424E+00 ( 5.1)   0.0000E+00 ( 0.0)   0.4283E-01 ( 5.1)
  Form  X(PQ)       0.1194E+01 (17.6)   0.1000E-04 (26.3)   0.1493E+00 (17.6)
  Increment EMP2    0.2540E+00 ( 3.8)   0.3000E-05 ( 7.9)   0.3177E-01 ( 3.7)
 ------------------------------------------------------------------------------
   Grand Totals     0.6770E+01          0.3800E-04          0.8480E+00
 ------------------------------------------------------------------------------
 
 --------------------------------------------------------------
 
                    Orbital Energies (a.u.)
 --------------------------------------------------------------
 
 Alpha MOs
 -- Occupied --
-77.100 -14.355  -6.596  -4.757  -4.757  -4.752  -0.856  -0.500
 -0.340  -0.340  -0.332
 -- Virtual --
 -0.098  -0.098   0.006   0.015   0.042   0.042   0.078   0.107
  0.107   0.118   0.118   0.120   0.203   0.203   0.211   0.270
  0.340   0.340   0.362   0.381   0.381   0.407   0.426   0.426
  0.428   0.428   0.504   0.504   0.567   0.567   0.595   0.639
  0.639   0.656   0.670   0.670   0.771   0.862   0.862   0.998
  1.111   1.293   1.293   1.314   1.314   1.367   1.367   1.377
  1.377   1.385   1.449   1.449   1.580   1.580   1.611   1.611
  1.644   1.796   1.796   1.870   1.870   1.905   1.940   1.940
  1.970   2.250   2.346   2.346   2.884   3.121   3.121   3.648
  4.248   4.549   4.549   4.645   4.645   4.714   4.714   4.719
  4.719   5.018   5.018   5.036   5.276   6.900   6.900   7.164
  7.164   7.707   9.506   9.506  10.114  11.880  19.912  19.912
 20.556  21.524  26.231  26.231  26.239  26.240  26.248  26.248
 26.262  32.447  32.447  32.579  32.579  32.892  38.093  38.093
 38.192  38.192  38.258  40.832  40.832  41.581  70.030 107.095
107.095 107.766 113.396
 --------------------------------------------------------------
 
          Ground-State Mulliken Net Atomic Charges

     Atom                 Charge (a.u.)
  ----------------------------------------
      1 N                    -0.544040
      2 P                     0.544040
  ----------------------------------------
  Sum of atomic charges =    -0.000000

 -----------------------------------------------------------------
                    Cartesian Multipole Moments
 -----------------------------------------------------------------
    Charge (ESU x 10^10)
                -0.0000
    Dipole Moment (Debye)
         X       0.0000      Y       0.0000      Z      -2.8868
       Tot       2.8868
    Quadrupole Moments (Debye-Ang)
        XX     -17.6705     XY       0.0000     YY     -17.6705
        XZ       0.0000     YZ       0.0000     ZZ     -22.9036
    Octopole Moments (Debye-Ang^2)
       XXX      -0.0000    XXY       0.0000    XYY      -0.0000
       YYY       0.0000    XXZ      -9.4998    XYZ       0.0000
       YYZ      -9.4998    XZZ      -0.0000    YZZ       0.0000
       ZZZ     -35.8593
    Hexadecapole Moments (Debye-Ang^3)
      XXXX     -23.2456   XXXY       0.0000   XXYY      -7.7485
      XYYY       0.0000   YYYY     -23.2456   XXXZ       0.0000
      XXYZ       0.0000   XYYZ       0.0000   YYYZ       0.0000
      XXZZ     -21.9603   XYZZ       0.0000   YYZZ     -21.9603
      XZZZ       0.0000   YZZZ       0.0000   ZZZZ    -123.4309
 -----------------------------------------------------------------
Archival summary:
1\1\n0090.mhg0\SP\ProcedureUnspecified\BasisUnspecified\11\yhljason\WedOct2103:32:372020WedOct2103:32:372020\0\\#,ProcedureUnspecified,BasisUnspecified,\\0,1\N\P,1,1.4909\\\@

 Total job time:  25.94s(wall), 206.86s(cpu) 
 Wed Oct 21 03:32:37 2020

        *************************************************************
        *                                                           *
        *  Thank you very much for using Q-Chem.  Have a nice day.  *
        *                                                           *
        *************************************************************


