Q-Chem Developer Version!
                  Welcome to Q-Chem
     A Quantum Leap Into The Future Of Chemistry


 Q-Chem 5.1, Q-Chem, Inc., Pleasanton, CA (2018)

 Yihan Shao,  Zhengting Gan,  E. Epifanovsky,  A. T. B. Gilbert,  M. Wormit,  
 J. Kussmann,  A. W. Lange,  A. Behn,  Jia Deng,  Xintian Feng,  D. Ghosh,  
 M. Goldey,  P. R. Horn,  L. D. Jacobson,  I. Kaliman,  T. Kus,  A. Landau,  
 Jie Liu,  E. I. Proynov,  R. M. Richard,  R. P. Steele,  E. J. Sundstrom,  
 H. L. Woodcock III,  P. M. Zimmerman,  D. Zuev,  B. Albrecht,  E. Alguire,  
 S. A. Baeppler,  D. Barton,  Z. Benda,  Y. A. Bernard,  E. J. Berquist,  
 K. B. Bravaya,  H. Burton,  D. Casanova,  Chun-Min Chang,  Yunqing Chen,  
 A. Chien,  K. D. Closser,  M. P. Coons,  S. Coriani,  S. Dasgupta,  
 A. L. Dempwolff,  M. Diedenhofen,  Hainam Do,  R. G. Edgar,  Po-Tung Fang,  
 S. Faraji,  S. Fatehi,  Qingguo Feng,  K. D. Fenk,  J. Fosso-Tande,  
 Qinghui Ge,  A. Ghysels,  G. Gidofalvi,  J. Gomes,  J. Gonthier,  A. Gunina,  
 D. Hait,  M. W. D. Hanson-Heine,  P. H. P. Harbach,  A. W. Hauser,  
 J. E. Herr,  E. G. Hohenstein,  Z. C. Holden,  Kerwin Hui,  B. C. Huynh,  
 T.-C. Jagau,  Hyunjun Ji,  B. Kaduk,  K. Khistyaev,  Jaehoon Kim,  
 P. Klunzinger,  K. Koh,  D. Kosenkov,  L. Koulias,  T. Kowalczyk,  
 C. M. Krauter,  A. Kunitsa,  Ka Un Lao,  A. Laurent,  K. V. Lawler,  
 Joonho Lee,  D. Lefrancois,  S. Lehtola,  D. S. Levine,  Yi-Pei Li,  
 You-Sheng Lin,  Fenglai Liu,  E. Livshits,  A. Luenser,  P. Manohar,  
 E. Mansoor,  S. F. Manzer,  Shan-Ping Mao,  Yuezhi Mao,  N. Mardirossian,  
 A. V. Marenich,  T. Markovich,  L. A. Martinez-Martinez,  S. A. Maurer,  
 N. J. Mayhall,  S. C. McKenzie,  J.-M. Mewes,  A. F. Morrison,  
 J. W. Mullinax,  K. Nanda,  T. S. Nguyen-Beck,  R. Olivares-Amaya,  
 J. A. Parkhill,  T. M. Perrine,  F. Plasser,  P. Pokhilko,  S. Prager,  
 A. Prociuk,  E. Ramos,  D. R. Rehn,  F. Rob,  M. Schneider,  N. Sergueev,  
 S. M. Sharada,  S. Sharma,  D. W. Small,  T. Stauch,  T. Stein,  
 Yu-Chuan Su,  A. J. W. Thom,  A. Tkatchenko,  T. Tsuchimochi,  N. M. Tubman,  
 L. Vogt,  M. L. Vidal,  O. Vydrov,  M. A. Watson,  J. Wenzel,  
 M. de Wergifosse,  T. A. Wesolowski,  A. White,  J. Witte,  A. Yamada,  
 Jun Yang,  K. Yao,  S. Yeganeh,  S. R. Yost,  Zhi-Qiang You,  A. Zech,  
 Igor Ying Zhang,  Xing Zhang,  Yan Zhao,  Ying Zhu,  B. R. Brooks,  
 G. K. L. Chan,  C. J. Cramer,  M. S. Gordon,  W. J. Hehre,  A. Klamt,  
 M. W. Schmidt,  C. D. Sherrill,  D. G. Truhlar,  A. Aspuru-Guzik,  R. Baer,  
 A. T. Bell,  N. A. Besley,  Jeng-Da Chai,  A. E. DePrince, III,  
 R. A. DiStasio Jr.,  A. Dreuw,  B. D. Dunietz,  T. R. Furlani,  
 Chao-Ping Hsu,  Yousung Jung,  Jing Kong,  D. S. Lambrecht,  WanZhen Liang,  
 C. Ochsenfeld,  V. A. Rassolov,  L. V. Slipchenko,  J. E. Subotnik,  
 T. Van Voorhis,  J. M. Herbert,  A. I. Krylov,  P. M. W. Gill,  M. Head-Gordon

 Contributors to earlier versions of Q-Chem not listed above: 
 R. D. Adamson,  B. Austin,  J. Baker,  G. J. O. Beran,  K. Brandhorst,  
 S. T. Brown,  E. F. C. Byrd,  A. K. Chakraborty,  C.-L. Cheng,  
 Siu Hung Chien,  D. M. Chipman,  D. L. Crittenden,  H. Dachsel,  
 R. J. Doerksen,  A. D. Dutoi,  L. Fusti-Molnar,  W. A. Goddard III,  
 A. Golubeva-Zadorozhnaya,  S. R. Gwaltney,  G. Hawkins,  A. Heyden,  
 S. Hirata,  G. Kedziora,  F. J. Keil,  C. Kelley,  Jihan Kim,  R. A. King,  
 R. Z. Khaliullin,  P. P. Korambath,  W. Kurlancheek,  A. M. Lee,  M. S. Lee,  
 S. V. Levchenko,  Ching Yeh Lin,  D. Liotard,  R. C. Lochan,  I. Lotan,  
 P. E. Maslen,  N. Nair,  D. P. O'Neill,  D. Neuhauser,  E. Neuscamman,  
 C. M. Oana,  R. Olson,  B. Peters,  R. Peverati,  P. A. Pieniazek,  
 Y. M. Rhee,  J. Ritchie,  M. A. Rohrdanz,  E. Rosta,  N. J. Russ,  
 H. F. Schaefer III,  N. E. Schultz,  N. Shenvi,  A. C. Simmonett,  A. Sodt,  
 D. Stuck,  K. S. Thanthiriwatte,  V. Vanovschi,  Tao Wang,  A. Warshel,  
 C. F. Williams,  Q. Wu,  X. Xu,  W. Zhang

 Please cite Q-Chem as follows:
 Y. Shao et al., Mol. Phys. 113, 184-215 (2015)
 DOI: 10.1080/00268976.2014.952696

 Q-Chem 5.1.1 for Intel X86 EM64T Linux

 Parts of Q-Chem use Armadillo 8.300.2 (Tropical Shenanigans).
 http://arma.sourceforge.net/

 Q-Chem begins on Wed Oct 21 03:29:38 2020  

Host: n0096.mhg0
0

     Scratch files written to /local/scratch/users/yhljason/S2_XYGJOS_aug-cc-pcVQZ.inp20201021032936//
Input Ideriv = 1
Curr. Ideriv = -1
Max.  Ideriv = 1

Checking the input file for inconsistencies... 	...done.

--------------------------------------------------------------
User input:
--------------------------------------------------------------
$molecule
0 3
S1	0.0000	0.0000	0.0000
S2	0.0000	0.0000	1.8892
$end

$rem
jobtype sp
exchange XYGJOS
xc_grid 000099000590
basis aug-cc-pcVQZ
aux_basis rimp2-aug-cc-pVQZ
max_scf_cycles 200
thresh 14
scf_convergence 8
scf_algorithm gdm
symmetry false
sym_ignore true
unrestricted false
gen_scfman false
internal_stability_iter 15
internal_stability_davidson_iter 200
mem_total 128000
cc_memory 96000
cc_backend xm
mem_static 1500
n_frozen_core 0
$end



--------------------------------------------------------------
 ----------------------------------------------------------------
             Standard Nuclear Orientation (Angstroms)
    I     Atom           X                Y                Z
 ----------------------------------------------------------------
    1      S       0.0000000000     0.0000000000     0.0000000000
    2      S       0.0000000000     0.0000000000     1.8892000000
 ----------------------------------------------------------------
 Nuclear Repulsion Energy =    71.7072654906 hartrees
 There are       17 alpha and       15 beta electrons
 Requested basis set is aug-cc-pCVQZ
 There are 68 shells and 268 basis functions

 Total QAlloc Memory Limit 128000 MB
 Mega-Array Size      1467 MB
 MEM_STATIC part      1500 MB

                       Distance Matrix (Angstroms)
             S (  1)
   S (  2)  1.889200
 
 Requested basis set is rimp2-aug-cc-pVQZ
 There are 88 shells and 388 basis functions
 A cutoff of  1.0D-14 yielded   2234 shell pairs
 There are     34742 function pairs (     58743 Cartesian)
 
 -------------------------------------------------------
 OpenMP Integral Computing Module                       
 Release: version 1.0, May 2013, Q-Chem Inc. Pittsburgh 
 -------------------------------------------------------
 Integral Job Info:
 Integral job number is                      11
 Integral operator is                         1
 short-range coefficients                     0
 long-range coefficients              100000000
 Omega coefficients                           0
 if combine SR and LR in K                    0
 Integral screening is                        0
 Integral computing path is                   2
 max size of driver memory is           3200000
 size of driver memory is               1704330
 size of scratch memory is             29435624
 max col of scratch BK array              50625
 max len of scratch array in speh3         2114
 max len of scratch index in speh4           50
 max int batch size is                      520
 min int batch size is                       52
 fixed nKL is                                22
 max L of basis functions is                  4
 order of int derivative is                   0
 number of shells is                         68
 number of basis is                         348
 number of cartesian basis is               348
 number of contracted shell pairs          2234
 number of primitive shell pairs          11054
 maxK2 (contraction) of shell pair          169
 max number of K2 of shell pair               1
 max number of CS2 of shell pair            198
 max number of PS2 of shell pair           2028
 mem total for path MDJ                  752464
 -------------------------------------------------------
 Smallest overlap matrix eigenvalue = 2.72E-05

 Scale SEOQF with 1.000000e-01/1.000000e-01/1.000000e-01

 Standard Electronic Orientation quadrupole field applied
 Nucleus-field energy     =    -0.0000000061 hartrees
 Constructing guess Fock matrix from core Hamiltonian
 Applying Wolfsberg-Helmholtz approximation
 A restricted hybrid HF-DFT SCF calculation will be
 performed using Geometric Direct Minimization
 Exchange:     0.2000 Hartree-Fock + 0.0800 Slater + 0.7200 B88
 Correlation:  0.1900 VWN1RPA + 0.8100 LYP
 Using Euler-Maclaurin-Lebedev (99,590) quadrature formula
 SCF converges when RMS gradient is below 1.0E-08
 using 8 threads for integral computing
 -------------------------------------------------------
 OpenMP Integral computing Module                
 Release: version 2.0, May 2017, Q-Chem Inc. Pleasanton 
 -------------------------------------------------------
TIMEINFO->: J/JK contribution 265.95 sec.
 -------------------------------------------------------
 OpenMP BLAS3 based DFT computing Module                
 Release: version 1.0, May 2013, Q-Chem Inc. Pittsburgh 
 -------------------------------------------------------
 ---------------------------------------
  Cycle       Energy        RMS Gradient
 ---------------------------------------
    1    -539.6780224775      6.16E+00 Descent step
TIMEINFO->: J/JK contribution 269.62 sec.
    2    -547.3777454357      7.64E+01 Line search: understep
TIMEINFO->: J/JK contribution 273.44 sec.
    3    -604.8596322402      5.07E+00 Descent step
TIMEINFO->: J/JK contribution 272.95 sec.
    4    -610.8040063162      5.21E+01 Line search: understep
TIMEINFO->: J/JK contribution 277.33 sec.
    5    -661.4424879450      6.85E+00 Descent step
TIMEINFO->: J/JK contribution 273.22 sec.
    6    -667.1369234350      9.79E+00 Line search: understep
TIMEINFO->: J/JK contribution 275.70 sec.
    7    -711.2250722140      4.59E+00 Descent step
TIMEINFO->: J/JK contribution 272.48 sec.
    8    -715.2470192359      8.60E+01 Line search: understep
TIMEINFO->: J/JK contribution 274.95 sec.
    9    -744.4177652040      2.61E+00 Descent step
TIMEINFO->: J/JK contribution 281.22 sec.
   10    -747.2936983154      2.46E+01 Line search: understep
TIMEINFO->: J/JK contribution 277.00 sec.
   11    -762.1844407582      3.86E+00 Descent step
TIMEINFO->: J/JK contribution 277.44 sec.
   12    -765.3064942670      3.13E+00 Descent step
TIMEINFO->: J/JK contribution 273.45 sec.
   13    -767.7221687695      2.04E+00 Descent step
TIMEINFO->: J/JK contribution 276.71 sec.
   14    -769.8044188741      1.56E+01 Line search: understep
TIMEINFO->: J/JK contribution 273.26 sec.
   15    -779.3362353172      1.27E+00 Descent step
TIMEINFO->: J/JK contribution 270.70 sec.
   16    -780.6996091176      1.38E+00 Descent step
TIMEINFO->: J/JK contribution 255.38 sec.
   17    -781.9866340987      1.44E+00 Descent step
TIMEINFO->: J/JK contribution 270.13 sec.
   18    -783.1516604630      1.07E+00 Descent step
TIMEINFO->: J/JK contribution 272.41 sec.
   19    -784.1480577577      3.52E+00 Line search: understep
TIMEINFO->: J/JK contribution 275.32 sec.
   20    -783.8371486647      3.09E+00 Descent step
TIMEINFO->: J/JK contribution 274.93 sec.
   21    -785.9994430233      1.14E+00 Descent step
TIMEINFO->: J/JK contribution 278.70 sec.
   22    -787.1359255932      1.44E+00 Descent step
TIMEINFO->: J/JK contribution 272.86 sec.
   23    -788.2104865199      2.89E+00 Descent step
TIMEINFO->: J/JK contribution 274.33 sec.
   24    -789.3371675487      8.16E-01 Descent step
TIMEINFO->: J/JK contribution 285.12 sec.
   25    -790.0395862422      1.26E+00 Descent step
TIMEINFO->: J/JK contribution 278.06 sec.
   26    -790.7766495838      7.15E-01 Descent step
TIMEINFO->: J/JK contribution 278.50 sec.
   27    -791.3576067435      9.20E-01 Descent step
TIMEINFO->: J/JK contribution 279.20 sec.
   GDM::BFGS:   rebuilding Hinv to be positive definite
   28    -791.9513528877      1.55E+00 Descent step
TIMEINFO->: J/JK contribution 271.21 sec.
   GDM::BFGS:   rebuilding Hinv to be positive definite
   29    -792.7176838872      1.41E+00 Descent step
TIMEINFO->: J/JK contribution 273.52 sec.
   GDM::BFGS:   rebuilding Hinv to be positive definite
   30    -793.4543259453      1.82E+00 Descent step
TIMEINFO->: J/JK contribution 267.53 sec.
   31    -794.1713781965      9.19E-01 Descent step
TIMEINFO->: J/JK contribution 268.16 sec.
   32    -794.7313546855      1.68E+00 Descent step
TIMEINFO->: J/JK contribution 268.81 sec.
   33    -795.4791658217      3.36E-01 Descent step
TIMEINFO->: J/JK contribution 271.96 sec.
   34    -795.7235642003      3.38E-01 Descent step
TIMEINFO->: J/JK contribution 273.00 sec.
   35    -795.9043520587      5.72E-01 Descent step
TIMEINFO->: J/JK contribution 270.70 sec.
   36    -796.1122609805      1.15E+00 Descent step
TIMEINFO->: J/JK contribution 278.95 sec.
   37    -796.2374218565      3.29E-01 Descent step
TIMEINFO->: J/JK contribution 259.36 sec.
   38    -796.2635246422      2.05E-01 Dog-leg BFGS step
TIMEINFO->: J/JK contribution 275.16 sec.
   39    -796.2405161266      2.26E-01 Line search: overstep
TIMEINFO->: J/JK contribution 279.41 sec.
   40    -796.2760284675      7.24E-02 Descent step
TIMEINFO->: J/JK contribution 275.59 sec.
   41    -796.2797246147      4.36E-02 Dog-leg BFGS step
TIMEINFO->: J/JK contribution 265.60 sec.
   42    -796.2178322609      4.39E-01 Line search: overstep
TIMEINFO->: J/JK contribution 279.86 sec.
   43    -796.2800910282      2.23E-02 Dog-leg BFGS step
TIMEINFO->: J/JK contribution 271.34 sec.
   44    -796.2758044260      1.85E-01 Line search: overstep
TIMEINFO->: J/JK contribution 271.52 sec.
   45    -796.2806886222      3.22E-03 Normal BFGS step
TIMEINFO->: J/JK contribution 265.82 sec.
   46    -796.2807101631      3.17E-03 Normal BFGS step
TIMEINFO->: J/JK contribution 254.15 sec.
   47    -796.2806997092      1.27E-02 Line search: overstep
TIMEINFO->: J/JK contribution 265.77 sec.
   48    -796.2807180858      1.40E-03 Normal BFGS step
TIMEINFO->: J/JK contribution 268.91 sec.
   49    -796.2807161495      6.68E-03 Line search: overstep
TIMEINFO->: J/JK contribution 269.16 sec.
   50    -796.2807201089      6.01E-04 Normal BFGS step
TIMEINFO->: J/JK contribution 264.54 sec.
   51    -796.2807186513      5.19E-03 Line search: overstep
TIMEINFO->: J/JK contribution 272.06 sec.
   52    -796.2807207239      2.09E-04 Normal BFGS step
TIMEINFO->: J/JK contribution 268.68 sec.
   53    -796.2807208190      1.79E-04 Normal BFGS step
TIMEINFO->: J/JK contribution 266.80 sec.
   54    -796.2807208501      4.67E-05 Normal BFGS step
TIMEINFO->: J/JK contribution 271.15 sec.
   55    -796.2807208531      2.35E-05 Normal BFGS step
TIMEINFO->: J/JK contribution 274.02 sec.
   56    -796.2807208535      5.00E-06 Normal BFGS step
TIMEINFO->: J/JK contribution 274.92 sec.
   57    -796.2807208535      6.48E-06 Normal BFGS step
TIMEINFO->: J/JK contribution 274.04 sec.
   58    -796.2807208535      1.07E-05 Normal BFGS step
TIMEINFO->: J/JK contribution 248.84 sec.
   59    -796.2807208538      1.41E-05 Line search: understep
TIMEINFO->: J/JK contribution 264.33 sec.
   60    -796.2807208714      1.23E-04 Line search: understep
TIMEINFO->: J/JK contribution 268.87 sec.
   61    -796.2807222477      1.17E-03 Line search: understep
TIMEINFO->: J/JK contribution 271.76 sec.
   62    -796.2808332326      1.06E-02 Line search: understep
TIMEINFO->: J/JK contribution 274.43 sec.
   GDM::BFGS:   rebuilding Hinv to be positive definite
   63    -796.2896391037      2.22E-01 Normal BFGS step
TIMEINFO->: J/JK contribution 270.82 sec.
   GDM::BFGS:   rebuilding Hinv to be positive definite
   64    -796.3177681283      3.91E-01 Normal BFGS step
TIMEINFO->: J/JK contribution 276.55 sec.
   65    -796.3912307121      2.81E-01 Descent step
TIMEINFO->: J/JK contribution 272.36 sec.
   66    -796.4274294249      1.88E-01 Descent step
TIMEINFO->: J/JK contribution 279.18 sec.
   67    -796.3689182978      1.24E+00 Line search: overstep
TIMEINFO->: J/JK contribution 276.10 sec.
   68    -796.4513324514      3.45E-02 Dog-leg BFGS step
TIMEINFO->: J/JK contribution 273.01 sec.
   69    -796.4531409012      2.34E-02 Dog-leg BFGS step
TIMEINFO->: J/JK contribution 274.81 sec.
   70    -796.4492728432      8.38E-02 Line search: overstep
TIMEINFO->: J/JK contribution 269.10 sec.
   71    -796.4536905330      1.17E-02 Descent step
TIMEINFO->: J/JK contribution 271.29 sec.
   72    -796.4536290844      6.60E-02 Line search: overstep
TIMEINFO->: J/JK contribution 273.32 sec.
   73    -796.4540192264      5.61E-03 Dog-leg BFGS step
TIMEINFO->: J/JK contribution 268.25 sec.
   74    -796.4484101788      1.98E-01 Line search: overstep
TIMEINFO->: J/JK contribution 268.25 sec.
   75    -796.4540325938      4.99E-03 Normal BFGS step
TIMEINFO->: J/JK contribution 265.69 sec.
   76    -796.4540413927      4.16E-03 Normal BFGS step
TIMEINFO->: J/JK contribution 263.90 sec.
   77    -796.4540608719      6.31E-04 Normal BFGS step
TIMEINFO->: J/JK contribution 263.14 sec.
   78    -796.4540611738      3.58E-04 Normal BFGS step
TIMEINFO->: J/JK contribution 264.53 sec.
   79    -796.4540614425      1.39E-04 Normal BFGS step
TIMEINFO->: J/JK contribution 265.46 sec.
   80    -796.4540614605      6.50E-05 Normal BFGS step
TIMEINFO->: J/JK contribution 258.07 sec.
   81    -796.4540614692      4.02E-05 Normal BFGS step
TIMEINFO->: J/JK contribution 264.30 sec.
   82    -796.4540614722      1.08E-05 Normal BFGS step
TIMEINFO->: J/JK contribution 262.41 sec.
   83    -796.4540614724      5.23E-06 Normal BFGS step
TIMEINFO->: J/JK contribution 258.18 sec.
   84    -796.4540614724      2.76E-06 Normal BFGS step
TIMEINFO->: J/JK contribution 259.49 sec.
   85    -796.4540614724      8.58E-07 Normal BFGS step
TIMEINFO->: J/JK contribution 237.99 sec.
   86    -796.4540614724      1.35E-07 Normal BFGS step
TIMEINFO->: J/JK contribution 239.52 sec.
   87    -796.4540614724      6.47E-08 Normal BFGS step
TIMEINFO->: J/JK contribution 241.97 sec.
   88    -796.4540614724      2.10E-08 Normal BFGS step
TIMEINFO->: J/JK contribution 229.70 sec.
   89    -796.4540614724      1.10E-08 Normal BFGS step
TIMEINFO->: J/JK contribution 223.04 sec.
   GDM::WARNING energy changes are now smaller than effective accuracy.
   GDM::        calculation will continue, but THRESH should be increased
   GDM::        or SCF_CONVERGENCE decreased.
   GDM::        effective_thresh =   2.865037408705806E-010
   90    -796.4540614724      3.83E-09 Convergence criterion met
 ---------------------------------------
 B3LYP orbitals are now ready for the XYGJ-OS calculation.
 XYGJ-OS energy = Exch (0.7731 HF  + 0.2269 Slater) + 
                  Corr (0.2754 LYP + 0.2309 VWN1RPA + 0.4364 OS-MP2)
 SCF time:  CPU 25236.90 s  wall 3210.98 s
 SCF   energy in the final basis set = -795.27960523
 Total energy in the final basis set = -795.27960523
 Entering Scaled Opposite Spin MP2
 NBasAux in rimp2.F =          388

 OS-MP2 job begins now...

 SOS scaling factor =  0.4
 Form (P|Q)**(-1/2)...
 
 Form (ia|P)...
 Form BiaQ = (ia|P)*(P|Q)**(-1/2)...
 Form (ia|P)...
 Form BiaQ = (ia|P)*(P|Q)**(-1/2)...
 Laplace quadrature loop begins
 Laplace point 1: correlation energy     =        -0.3962467259
 Laplace point 2: correlation energy     =        -0.2332127847
 Laplace point 3: correlation energy     =        -0.1383305740
 Laplace point 4: correlation energy     =        -0.1213496602
 Laplace point 5: correlation energy     =        -0.0572372998
 Laplace point 6: correlation energy     =        -0.0085451383
 Laplace point 7: correlation energy     =        -0.0001966287
 
 singles contribution not yet available for XYGJ-OS 
 Total OS-MP2 correlation energy         =        -0.9551188116

 Total XYGJ-OS energy                    =      -795.6985576835
 
 ------------------------------------------------------------------------------
                     SOSMP2        : Timing summary (seconds)
 ------------------------------------------------------------------------------
     job step          cpu (% of tot)      sys (% of tot)     wall (% of tot)
 ------------------------------------------------------------------------------
  Form inv (P|Q)    0.7392E+00 ( 0.7)   0.6000E-05 ( 1.2)   0.1309E+00 ( 0.8)
  Form (ia|P)       0.9704E+02 (93.7)   0.4610E-03 (92.2)   0.1393E+02 (85.0)
  Form  BiaQ        0.3465E+01 ( 3.3)   0.2400E-04 ( 4.8)   0.4977E+00 ( 3.0)
  LP orbitals       0.3494E+00 ( 0.3)   0.8000E-05 ( 1.6)   0.2843E+00 ( 1.7)
  Form  X(PQ)       0.1771E+01 ( 1.7)   0.1000E-05 ( 0.2)   0.1386E+01 ( 8.5)
  Increment EMP2    0.8209E-01 ( 0.1)   0.0000E+00 ( 0.0)   0.8251E-01 ( 0.5)
 ------------------------------------------------------------------------------
   Grand Totals     0.1035E+03          0.5000E-03          0.1639E+02
 ------------------------------------------------------------------------------
 
 --------------------------------------------------------------
 
                    Orbital Energies (a.u.)
 --------------------------------------------------------------
 
 Alpha MOs
 -- Occupied --
-88.907 -88.907  -7.987  -7.987  -5.947  -5.946  -5.948  -5.948
 -5.948  -5.948  -0.845  -0.635  -0.407  -0.382  -0.382  -0.248
 -0.248
 -- Virtual --
 -0.025   0.009   0.034   0.034   0.038   0.045   0.064   0.064
  0.087   0.087   0.124   0.137   0.137   0.162   0.180   0.180
  0.216   0.216   0.226   0.275   0.275   0.318   0.330   0.330
  0.331   0.331   0.364   0.370   0.392   0.392   0.403   0.403
  0.407   0.407   0.444   0.487   0.487   0.499   0.499   0.523
  0.523   0.568   0.653   0.653   0.661   0.661   0.701   0.753
  0.781   0.781   0.891   1.038   1.038   1.073   1.073   1.104
  1.166   1.167   1.167   1.187   1.187   1.189   1.189   1.199
  1.199   1.211   1.211   1.244   1.264   1.264   1.306   1.306
  1.344   1.344   1.369   1.369   1.375   1.375   1.440   1.440
  1.501   1.501   1.503   1.513   1.524   1.524   1.561   1.561
  1.629   1.629   1.911   1.913   1.913   1.944   2.044   2.043
  2.043   2.412   2.412   2.500   2.508   2.989   2.989   3.056
  3.056   3.069   3.069   3.081   3.188   3.233   3.233   3.244
  3.244   3.288   3.288   3.282   3.282   3.345   3.345   3.417
  3.417   3.444   3.444   3.465   3.465   3.492   3.531   3.531
  3.537   3.537   3.652   3.652   3.692   3.692   3.746   3.746
  3.899   3.911   4.016   4.016   4.469   4.469   4.746   4.746
  4.810   5.279   5.279   5.763   6.050   7.900   8.178   9.493
  9.493   9.570   9.570   9.597   9.597   9.951   9.951  10.041
 10.688  15.424  15.424  15.792  15.792  16.121  16.315  17.999
 17.999  18.007  18.007  18.013  18.014  18.014  18.039  18.039
 18.063  18.063  18.147  18.147  18.404  27.378  27.726  30.907
 30.907  30.960  30.960  30.983  30.983  31.215  31.215  31.254
 31.728  44.949  44.949  45.269  45.269  45.561  45.721  54.665
 54.665  54.665  54.665  54.666  54.666  54.668  54.668  54.668
 54.668  54.668  54.668  54.668  54.669  54.669  54.672  54.672
 54.672  64.767  64.767  64.773  64.773  64.776  64.775  64.775
 64.792  64.792  64.803  64.803  64.840  64.840  64.941  80.943
 81.385  92.364  92.364  92.402  92.402  92.420  92.420  92.590
 92.590  92.600  92.951 144.177 144.177 144.391 144.391 144.600
144.684 383.512 385.421
 
 Beta MOs
 -- Occupied --
-88.901 -88.901  -7.981  -7.981  -5.944  -5.943  -5.937  -5.937
 -5.937  -5.937  -0.817  -0.583  -0.382  -0.336  -0.336
 -- Virtual --
 -0.144  -0.144  -0.012   0.012   0.036   0.036   0.045   0.046
  0.067   0.067   0.098   0.098   0.129   0.151   0.151   0.166
  0.192   0.192   0.221   0.221   0.230   0.281   0.281   0.323
  0.350   0.350   0.348   0.348   0.372   0.377   0.402   0.402
  0.408   0.408   0.439   0.439   0.452   0.503   0.503   0.506
  0.506   0.532   0.532   0.577   0.658   0.658   0.671   0.671
  0.709   0.766   0.795   0.795   0.899   1.048   1.048   1.097
  1.097   1.111   1.181   1.193   1.193   1.198   1.198   1.212
  1.212   1.216   1.216   1.225   1.225   1.251   1.291   1.291
  1.331   1.331   1.376   1.376   1.384   1.384   1.394   1.394
  1.459   1.459   1.514   1.514   1.514   1.524   1.540   1.540
  1.574   1.574   1.645   1.645   1.924   1.924   1.924   1.967
  2.058   2.062   2.062   2.432   2.432   2.508   2.526   3.010
  3.010   3.072   3.072   3.092   3.092   3.095   3.200   3.252
  3.252   3.254   3.254   3.309   3.309   3.323   3.323   3.386
  3.386   3.445   3.445   3.473   3.473   3.506   3.506   3.510
  3.558   3.558   3.579   3.579   3.670   3.670   3.723   3.723
  3.770   3.770   3.917   3.924   4.039   4.039   4.485   4.485
  4.768   4.768   4.817   5.300   5.300   5.772   6.056   7.916
  8.196   9.511   9.511   9.588   9.588   9.608   9.608   9.962
  9.962  10.048  10.694  15.441  15.441  15.808  15.808  16.127
 16.321  18.002  18.002  18.010  18.010  18.014  18.017  18.017
 18.040  18.040  18.065  18.065  18.149  18.149  18.406  27.385
 27.733  30.919  30.919  30.972  30.972  30.990  30.990  31.222
 31.222  31.260  31.734  44.960  44.960  45.280  45.280  45.564
 45.725  54.667  54.667  54.668  54.668  54.669  54.669  54.671
 54.671  54.671  54.672  54.670  54.672  54.672  54.672  54.672
 54.674  54.674  54.674  64.778  64.778  64.781  64.781  64.781
 64.786  64.786  64.798  64.798  64.811  64.811  64.846  64.846
 64.946  80.950  81.392  92.378  92.378  92.416  92.416  92.428
 92.428  92.598  92.598  92.606  92.957 144.185 144.185 144.399
144.399 144.603 144.687 383.517 385.426
 --------------------------------------------------------------
 
          Ground-State Mulliken Net Atomic Charges

     Atom                 Charge (a.u.)
  ----------------------------------------
      1 S                    -0.000000
      2 S                     0.000000
  ----------------------------------------
  Sum of atomic charges =    -0.000000

 -----------------------------------------------------------------
                    Cartesian Multipole Moments
 -----------------------------------------------------------------
    Charge (ESU x 10^10)
                -0.0000
    Dipole Moment (Debye)
         X      -0.0000      Y       0.0000      Z       0.0000
       Tot       0.0000
    Quadrupole Moments (Debye-Ang)
        XX     -25.9457     XY       0.0000     YY     -25.9457
        XZ       0.0000     YZ       0.0000     ZZ     -24.2418
    Octopole Moments (Debye-Ang^2)
       XXX      -0.0000    XXY       0.0000    XYY      -0.0000
       YYY       0.0000    XXZ     -24.5084    XYZ       0.0000
       YYZ     -24.5084    XZZ       0.0000    YZZ       0.0000
       ZZZ     -68.6963
    Hexadecapole Moments (Debye-Ang^3)
      XXXX     -35.2545   XXXY       0.0000   XXYY     -11.7515
      XYYY       0.0000   YYYY     -35.2545   XXXZ       0.0000
      XXYZ      -0.0000   XYYZ       0.0000   YYYZ       0.0000
      XXZZ     -58.0804   XYZZ       0.0000   YYZZ     -58.0804
      XZZZ       0.0000   YZZZ       0.0000   ZZZZ    -289.2064
 -----------------------------------------------------------------
Archival summary:
1\1\n0096.mhg0\SP\ROProcedureUnspecified\BasisUnspecified\2(3)\yhljason\WedOct2104:23:272020WedOct2104:23:272020\0\\#,ROProcedureUnspecified,BasisUnspecified,\\0,3\S\S,1,1.8892\\\@

 Total job time:  3228.83s(wall), 25348.20s(cpu) 
 Wed Oct 21 04:23:27 2020

        *************************************************************
        *                                                           *
        *  Thank you very much for using Q-Chem.  Have a nice day.  *
        *                                                           *
        *************************************************************


 
User input: 2 of 7 
 
Q-Chem Developer Version!
                  Welcome to Q-Chem
     A Quantum Leap Into The Future Of Chemistry


 Q-Chem 5.1, Q-Chem, Inc., Pleasanton, CA (2018)

 Yihan Shao,  Zhengting Gan,  E. Epifanovsky,  A. T. B. Gilbert,  M. Wormit,  
 J. Kussmann,  A. W. Lange,  A. Behn,  Jia Deng,  Xintian Feng,  D. Ghosh,  
 M. Goldey,  P. R. Horn,  L. D. Jacobson,  I. Kaliman,  T. Kus,  A. Landau,  
 Jie Liu,  E. I. Proynov,  R. M. Richard,  R. P. Steele,  E. J. Sundstrom,  
 H. L. Woodcock III,  P. M. Zimmerman,  D. Zuev,  B. Albrecht,  E. Alguire,  
 S. A. Baeppler,  D. Barton,  Z. Benda,  Y. A. Bernard,  E. J. Berquist,  
 K. B. Bravaya,  H. Burton,  D. Casanova,  Chun-Min Chang,  Yunqing Chen,  
 A. Chien,  K. D. Closser,  M. P. Coons,  S. Coriani,  S. Dasgupta,  
 A. L. Dempwolff,  M. Diedenhofen,  Hainam Do,  R. G. Edgar,  Po-Tung Fang,  
 S. Faraji,  S. Fatehi,  Qingguo Feng,  K. D. Fenk,  J. Fosso-Tande,  
 Qinghui Ge,  A. Ghysels,  G. Gidofalvi,  J. Gomes,  J. Gonthier,  A. Gunina,  
 D. Hait,  M. W. D. Hanson-Heine,  P. H. P. Harbach,  A. W. Hauser,  
 J. E. Herr,  E. G. Hohenstein,  Z. C. Holden,  Kerwin Hui,  B. C. Huynh,  
 T.-C. Jagau,  Hyunjun Ji,  B. Kaduk,  K. Khistyaev,  Jaehoon Kim,  
 P. Klunzinger,  K. Koh,  D. Kosenkov,  L. Koulias,  T. Kowalczyk,  
 C. M. Krauter,  A. Kunitsa,  Ka Un Lao,  A. Laurent,  K. V. Lawler,  
 Joonho Lee,  D. Lefrancois,  S. Lehtola,  D. S. Levine,  Yi-Pei Li,  
 You-Sheng Lin,  Fenglai Liu,  E. Livshits,  A. Luenser,  P. Manohar,  
 E. Mansoor,  S. F. Manzer,  Shan-Ping Mao,  Yuezhi Mao,  N. Mardirossian,  
 A. V. Marenich,  T. Markovich,  L. A. Martinez-Martinez,  S. A. Maurer,  
 N. J. Mayhall,  S. C. McKenzie,  J.-M. Mewes,  A. F. Morrison,  
 J. W. Mullinax,  K. Nanda,  T. S. Nguyen-Beck,  R. Olivares-Amaya,  
 J. A. Parkhill,  T. M. Perrine,  F. Plasser,  P. Pokhilko,  S. Prager,  
 A. Prociuk,  E. Ramos,  D. R. Rehn,  F. Rob,  M. Schneider,  N. Sergueev,  
 S. M. Sharada,  S. Sharma,  D. W. Small,  T. Stauch,  T. Stein,  
 Yu-Chuan Su,  A. J. W. Thom,  A. Tkatchenko,  T. Tsuchimochi,  N. M. Tubman,  
 L. Vogt,  M. L. Vidal,  O. Vydrov,  M. A. Watson,  J. Wenzel,  
 M. de Wergifosse,  T. A. Wesolowski,  A. White,  J. Witte,  A. Yamada,  
 Jun Yang,  K. Yao,  S. Yeganeh,  S. R. Yost,  Zhi-Qiang You,  A. Zech,  
 Igor Ying Zhang,  Xing Zhang,  Yan Zhao,  Ying Zhu,  B. R. Brooks,  
 G. K. L. Chan,  C. J. Cramer,  M. S. Gordon,  W. J. Hehre,  A. Klamt,  
 M. W. Schmidt,  C. D. Sherrill,  D. G. Truhlar,  A. Aspuru-Guzik,  R. Baer,  
 A. T. Bell,  N. A. Besley,  Jeng-Da Chai,  A. E. DePrince, III,  
 R. A. DiStasio Jr.,  A. Dreuw,  B. D. Dunietz,  T. R. Furlani,  
 Chao-Ping Hsu,  Yousung Jung,  Jing Kong,  D. S. Lambrecht,  WanZhen Liang,  
 C. Ochsenfeld,  V. A. Rassolov,  L. V. Slipchenko,  J. E. Subotnik,  
 T. Van Voorhis,  J. M. Herbert,  A. I. Krylov,  P. M. W. Gill,  M. Head-Gordon

 Contributors to earlier versions of Q-Chem not listed above: 
 R. D. Adamson,  B. Austin,  J. Baker,  G. J. O. Beran,  K. Brandhorst,  
 S. T. Brown,  E. F. C. Byrd,  A. K. Chakraborty,  C.-L. Cheng,  
 Siu Hung Chien,  D. M. Chipman,  D. L. Crittenden,  H. Dachsel,  
 R. J. Doerksen,  A. D. Dutoi,  L. Fusti-Molnar,  W. A. Goddard III,  
 A. Golubeva-Zadorozhnaya,  S. R. Gwaltney,  G. Hawkins,  A. Heyden,  
 S. Hirata,  G. Kedziora,  F. J. Keil,  C. Kelley,  Jihan Kim,  R. A. King,  
 R. Z. Khaliullin,  P. P. Korambath,  W. Kurlancheek,  A. M. Lee,  M. S. Lee,  
 S. V. Levchenko,  Ching Yeh Lin,  D. Liotard,  R. C. Lochan,  I. Lotan,  
 P. E. Maslen,  N. Nair,  D. P. O'Neill,  D. Neuhauser,  E. Neuscamman,  
 C. M. Oana,  R. Olson,  B. Peters,  R. Peverati,  P. A. Pieniazek,  
 Y. M. Rhee,  J. Ritchie,  M. A. Rohrdanz,  E. Rosta,  N. J. Russ,  
 H. F. Schaefer III,  N. E. Schultz,  N. Shenvi,  A. C. Simmonett,  A. Sodt,  
 D. Stuck,  K. S. Thanthiriwatte,  V. Vanovschi,  Tao Wang,  A. Warshel,  
 C. F. Williams,  Q. Wu,  X. Xu,  W. Zhang

 Please cite Q-Chem as follows:
 Y. Shao et al., Mol. Phys. 113, 184-215 (2015)
 DOI: 10.1080/00268976.2014.952696

 Q-Chem 5.1.1 for Intel X86 EM64T Linux

 Parts of Q-Chem use Armadillo 8.300.2 (Tropical Shenanigans).
 http://arma.sourceforge.net/

 Q-Chem begins on Wed Oct 21 04:23:27 2020  

Host: n0096.mhg0
0

     Scratch files written to /local/scratch/users/yhljason/S2_XYGJOS_aug-cc-pcVQZ.inp20201021032936//
The previous job contains 0 fragments, simply inherited here
Input Ideriv = 1
Curr. Ideriv = -1
Max.  Ideriv = 1

Checking the input file for inconsistencies... 	...done.

--------------------------------------------------------------
User input:
--------------------------------------------------------------
$molecule
read
$end

$rem

jobtype sp
exchange XYGJOS
xc_grid 000099000590
basis aug-cc-pcVQZ
aux_basis rimp2-aug-cc-pVQZ
max_scf_cycles 200
thresh 14
scf_convergence 8
mem_total 128000
cc_memory 96000
cc_backend xm
mem_static 1500
symmetry false
sym_ignore true
scf_guess read
unrestricted false
scf_algorithm gdm
n_frozen_core 0
$end

$multipole_field
XX 0.0001
$end


--------------------------------------------------------------
 ----------------------------------------------------------------
             Standard Nuclear Orientation (Angstroms)
    I     Atom           X                Y                Z
 ----------------------------------------------------------------
    1      S       0.0000000000     0.0000000000     0.0000000000
    2      S       0.0000000000     0.0000000000     1.8892000000
 ----------------------------------------------------------------
 Nuclear Repulsion Energy =    71.7072654906 hartrees
 There are       17 alpha and       15 beta electrons
 Requested basis set is aug-cc-pCVQZ
 There are 68 shells and 268 basis functions

 Total QAlloc Memory Limit 128000 MB
 Mega-Array Size      1467 MB
 MEM_STATIC part      1500 MB

                       Distance Matrix (Angstroms)
             S (  1)
   S (  2)  1.889200
 
 Applying Cartesian multipole field
    Component          Value
    ---------          -----
     (2,0,0)        1.00000E-04
 Requested basis set is rimp2-aug-cc-pVQZ
 There are 88 shells and 388 basis functions
 A cutoff of  1.0D-14 yielded   2234 shell pairs
 There are     34742 function pairs (     58743 Cartesian)
 
 -------------------------------------------------------
 OpenMP Integral Computing Module                       
 Release: version 1.0, May 2013, Q-Chem Inc. Pittsburgh 
 -------------------------------------------------------
 Integral Job Info:
 Integral job number is                      11
 Integral operator is                         1
 short-range coefficients                     0
 long-range coefficients              100000000
 Omega coefficients                           0
 if combine SR and LR in K                    0
 Integral screening is                        0
 Integral computing path is                   2
 max size of driver memory is           3200000
 size of driver memory is               1704330
 size of scratch memory is             29435624
 max col of scratch BK array              50625
 max len of scratch array in speh3         2114
 max len of scratch index in speh4           50
 max int batch size is                      520
 min int batch size is                       52
 fixed nKL is                                22
 max L of basis functions is                  4
 order of int derivative is                   0
 number of shells is                         68
 number of basis is                         348
 number of cartesian basis is               348
 number of contracted shell pairs          2234
 number of primitive shell pairs          11054
 maxK2 (contraction) of shell pair          169
 max number of K2 of shell pair               1
 max number of CS2 of shell pair            198
 max number of PS2 of shell pair           2028
 mem total for path MDJ                  752464
 -------------------------------------------------------
 Smallest overlap matrix eigenvalue = 2.72E-05
 Guess MOs from SCF MO coefficient file
 Reading MOs from coefficient file
 Reading MOs from coefficient file
 A restricted hybrid HF-DFT SCF calculation will be
 performed using Geometric Direct Minimization
 Exchange:     0.2000 Hartree-Fock + 0.0800 Slater + 0.7200 B88
 Correlation:  0.1900 VWN1RPA + 0.8100 LYP
 Using Euler-Maclaurin-Lebedev (99,590) quadrature formula
 SCF converges when RMS gradient is below 1.0E-08
Using Q-Chem read-in guess as SCF_GUESS READ specified.

 using 8 threads for integral computing
 -------------------------------------------------------
 OpenMP Integral computing Module                
 Release: version 2.0, May 2017, Q-Chem Inc. Pleasanton 
 -------------------------------------------------------
TIMEINFO->: J/JK contribution 257.04 sec.
 -------------------------------------------------------
 OpenMP BLAS3 based DFT computing Module                
 Release: version 1.0, May 2013, Q-Chem Inc. Pittsburgh 
 -------------------------------------------------------
 ---------------------------------------
  Cycle       Energy        RMS Gradient
 ---------------------------------------
    1    -796.4559904752      6.77E-04 Normal BFGS step
TIMEINFO->: J/JK contribution 270.17 sec.
    2    -796.4559911525      3.91E-04 Normal BFGS step
TIMEINFO->: J/JK contribution 264.06 sec.
    3    -796.4559913231      8.33E-05 Normal BFGS step
TIMEINFO->: J/JK contribution 265.19 sec.
    4    -796.4559913381      4.23E-05 Normal BFGS step
TIMEINFO->: J/JK contribution 265.61 sec.
    5    -796.4559913427      7.81E-06 Normal BFGS step
TIMEINFO->: J/JK contribution 256.70 sec.
    6    -796.4559913429      1.94E-06 Normal BFGS step
TIMEINFO->: J/JK contribution 261.22 sec.
    7    -796.4559913429      6.77E-07 Normal BFGS step
TIMEINFO->: J/JK contribution 251.05 sec.
    8    -796.4559913429      1.57E-07 Normal BFGS step
TIMEINFO->: J/JK contribution 243.01 sec.
    9    -796.4559913429      2.00E-07 Normal BFGS step
TIMEINFO->: J/JK contribution 242.74 sec.
   10    -796.4559913429      6.99E-08 Normal BFGS step
TIMEINFO->: J/JK contribution 239.27 sec.
   GDM::WARNING energy changes are now smaller than effective accuracy.
   GDM::        calculation will continue, but THRESH should be increased
   GDM::        or SCF_CONVERGENCE decreased.
   GDM::        effective_thresh =   1.700000000000000E-010
   11    -796.4559913429      1.78E-08 Normal BFGS step
TIMEINFO->: J/JK contribution 229.37 sec.
   12    -796.4559913429      1.18E-09 Convergence criterion met
 ---------------------------------------
 B3LYP orbitals are now ready for the XYGJ-OS calculation.
 XYGJ-OS energy = Exch (0.7731 HF  + 0.2269 Slater) + 
                  Corr (0.2754 LYP + 0.2309 VWN1RPA + 0.4364 OS-MP2)
 SCF time:  CPU 3190.43 s  wall 406.83 s
 SCF   energy in the final basis set = -795.28154352
 Total energy in the final basis set = -795.28154352
 Entering Scaled Opposite Spin MP2
 NBasAux in rimp2.F =          388

 OS-MP2 job begins now...

 SOS scaling factor =  0.4
 Form (P|Q)**(-1/2)...
 
 Form (ia|P)...
 Form BiaQ = (ia|P)*(P|Q)**(-1/2)...
 Form (ia|P)...
 Form BiaQ = (ia|P)*(P|Q)**(-1/2)...
 Laplace quadrature loop begins
 Laplace point 1: correlation energy     =        -0.3962412963
 Laplace point 2: correlation energy     =        -0.2332037150
 Laplace point 3: correlation energy     =        -0.1383212374
 Laplace point 4: correlation energy     =        -0.1213516113
 Laplace point 5: correlation energy     =        -0.0572483398
 Laplace point 6: correlation energy     =        -0.0085503539
 Laplace point 7: correlation energy     =        -0.0001970718
 
 singles contribution not yet available for XYGJ-OS 
 Total OS-MP2 correlation energy         =        -0.9551136253

 Total XYGJ-OS energy                    =      -795.7004934390
 
 ------------------------------------------------------------------------------
                     SOSMP2        : Timing summary (seconds)
 ------------------------------------------------------------------------------
     job step          cpu (% of tot)      sys (% of tot)     wall (% of tot)
 ------------------------------------------------------------------------------
  Form inv (P|Q)    0.9646E+00 ( 1.3)   0.5000E-05 ( 1.5)   0.1389E+00 ( 1.2)
  Form (ia|P)       0.6779E+02 (92.3)   0.2990E-03 (90.6)   0.9737E+01 (81.8)
  Form  BiaQ        0.2179E+01 ( 3.0)   0.1400E-04 ( 4.2)   0.3128E+00 ( 2.6)
  LP orbitals       0.3987E+00 ( 0.5)   0.7000E-05 ( 2.1)   0.2970E+00 ( 2.5)
  Form  X(PQ)       0.1736E+01 ( 2.4)   0.3000E-05 ( 0.9)   0.1247E+01 (10.5)
  Increment EMP2    0.7394E-01 ( 0.1)   0.0000E+00 ( 0.0)   0.7415E-01 ( 0.6)
 ------------------------------------------------------------------------------
   Grand Totals     0.7342E+02          0.3300E-03          0.1190E+02
 ------------------------------------------------------------------------------
 
 --------------------------------------------------------------
 
                    Orbital Energies (a.u.)
 --------------------------------------------------------------
 
 Alpha MOs
 -- Occupied --
-88.908 -88.908  -7.987  -7.987  -5.948  -5.947  -5.948  -5.948
 -5.948  -5.948  -0.845  -0.635  -0.407  -0.383  -0.382  -0.248
 -0.248
 -- Virtual --
 -0.025   0.008   0.031   0.033   0.037   0.044   0.061   0.063
  0.086   0.086   0.123   0.136   0.137   0.160   0.179   0.179
  0.213   0.215   0.225   0.273   0.274   0.317   0.330   0.329
  0.329   0.331   0.363   0.369   0.390   0.391   0.402   0.402
  0.406   0.406   0.444   0.486   0.487   0.498   0.498   0.522
  0.522   0.568   0.652   0.652   0.660   0.660   0.700   0.753
  0.780   0.780   0.890   1.038   1.038   1.072   1.072   1.104
  1.166   1.166   1.166   1.186   1.186   1.188   1.189   1.199
  1.199   1.210   1.210   1.243   1.263   1.264   1.305   1.305
  1.343   1.343   1.368   1.369   1.374   1.374   1.439   1.439
  1.500   1.501   1.503   1.513   1.523   1.524   1.560   1.560
  1.629   1.629   1.911   1.912   1.913   1.944   2.043   2.043
  2.043   2.412   2.412   2.499   2.507   2.989   2.989   3.056
  3.056   3.068   3.068   3.081   3.188   3.233   3.233   3.244
  3.244   3.287   3.288   3.281   3.281   3.344   3.344   3.416
  3.416   3.443   3.443   3.465   3.465   3.491   3.530   3.530
  3.536   3.536   3.651   3.651   3.691   3.691   3.746   3.746
  3.898   3.911   4.016   4.016   4.469   4.469   4.746   4.746
  4.810   5.279   5.279   5.763   6.049   7.899   8.177   9.493
  9.493   9.569   9.569   9.597   9.597   9.951   9.951  10.041
 10.687  15.424  15.424  15.791  15.791  16.121  16.315  17.998
 17.998  18.007  18.007  18.013  18.013  18.013  18.038  18.038
 18.063  18.063  18.147  18.147  18.403  27.377  27.726  30.907
 30.907  30.959  30.959  30.982  30.982  31.215  31.215  31.253
 31.727  44.949  44.949  45.268  45.268  45.560  45.721  54.665
 54.665  54.665  54.665  54.666  54.666  54.668  54.668  54.667
 54.667  54.668  54.668  54.668  54.669  54.669  54.671  54.671
 54.672  64.767  64.767  64.773  64.773  64.775  64.775  64.775
 64.792  64.792  64.803  64.803  64.840  64.840  64.941  80.942
 81.384  92.364  92.364  92.402  92.402  92.419  92.419  92.590
 92.590  92.600  92.950 144.177 144.177 144.390 144.390 144.600
144.684 383.512 385.421
 
 Beta MOs
 -- Occupied --
-88.902 -88.902  -7.982  -7.982  -5.944  -5.944  -5.937  -5.937
 -5.937  -5.937  -0.817  -0.583  -0.382  -0.336  -0.336
 -- Virtual --
 -0.144  -0.144  -0.013   0.011   0.033   0.035   0.044   0.045
  0.063   0.066   0.097   0.097   0.128   0.150   0.151   0.165
  0.191   0.191   0.219   0.220   0.229   0.279   0.280   0.322
  0.347   0.349   0.349   0.348   0.371   0.375   0.400   0.401
  0.407   0.407   0.438   0.438   0.452   0.502   0.502   0.506
  0.506   0.531   0.531   0.577   0.657   0.657   0.670   0.670
  0.708   0.765   0.794   0.795   0.899   1.047   1.047   1.097
  1.097   1.111   1.181   1.193   1.193   1.198   1.198   1.211
  1.212   1.216   1.216   1.225   1.225   1.251   1.290   1.291
  1.330   1.330   1.375   1.375   1.384   1.384   1.394   1.394
  1.459   1.459   1.513   1.513   1.514   1.524   1.539   1.539
  1.574   1.574   1.645   1.645   1.924   1.924   1.924   1.966
  2.058   2.061   2.061   2.431   2.431   2.508   2.525   3.009
  3.009   3.072   3.072   3.091   3.091   3.094   3.200   3.251
  3.251   3.254   3.254   3.309   3.309   3.322   3.322   3.385
  3.385   3.445   3.445   3.473   3.473   3.506   3.506   3.509
  3.558   3.558   3.578   3.578   3.670   3.670   3.722   3.722
  3.769   3.769   3.917   3.924   4.039   4.039   4.484   4.484
  4.767   4.768   4.817   5.300   5.300   5.772   6.055   7.915
  8.195   9.510   9.510   9.587   9.587   9.607   9.607   9.962
  9.962  10.048  10.694  15.440  15.440  15.808  15.808  16.127
 16.321  18.002  18.002  18.009  18.009  18.014  18.017  18.017
 18.040  18.040  18.065  18.065  18.148  18.148  18.405  27.385
 27.733  30.919  30.919  30.972  30.972  30.989  30.989  31.222
 31.222  31.259  31.733  44.959  44.959  45.279  45.279  45.564
 45.725  54.667  54.667  54.667  54.667  54.669  54.669  54.671
 54.671  54.671  54.671  54.670  54.672  54.672  54.671  54.671
 54.673  54.673  54.674  64.778  64.778  64.780  64.780  64.780
 64.786  64.786  64.797  64.797  64.810  64.810  64.845  64.845
 64.946  80.950  81.392  92.378  92.378  92.416  92.416  92.427
 92.427  92.598  92.598  92.606  92.957 144.185 144.185 144.398
144.398 144.603 144.687 383.517 385.426
 --------------------------------------------------------------
 
          Ground-State Mulliken Net Atomic Charges

     Atom                 Charge (a.u.)
  ----------------------------------------
      1 S                     0.000000
      2 S                    -0.000000
  ----------------------------------------
  Sum of atomic charges =    -0.000000

 -----------------------------------------------------------------
                    Cartesian Multipole Moments
 -----------------------------------------------------------------
    Charge (ESU x 10^10)
                -0.0000
    Dipole Moment (Debye)
         X       0.0000      Y      -0.0000      Z      -0.0000
       Tot       0.0000
    Quadrupole Moments (Debye-Ang)
        XX     -25.9691     XY       0.0000     YY     -25.9488
        XZ       0.0000     YZ      -0.0000     ZZ     -24.2440
    Octopole Moments (Debye-Ang^2)
       XXX       0.0000    XXY      -0.0000    XYY       0.0000
       YYY      -0.0000    XXZ     -24.5304    XYZ       0.0000
       YYZ     -24.5112    XZZ       0.0000    YZZ      -0.0000
       ZZZ     -68.7027
    Hexadecapole Moments (Debye-Ang^3)
      XXXX     -35.3723   XXXY      -0.0000   XXYY     -11.7743
      XYYY      -0.0000   YYYY     -35.2735   XXXZ       0.0000
      XXYZ      -0.0000   XYYZ       0.0000   YYYZ      -0.0000
      XXZZ     -58.1499   XYZZ       0.0000   YYZZ     -58.0928
      XZZZ       0.0000   YZZZ      -0.0000   ZZZZ    -289.2500
 -----------------------------------------------------------------
Archival summary:
1\1\n0096.mhg0\SP\ROProcedureUnspecified\BasisUnspecified\2(3)\yhljason\WedOct2104:30:282020WedOct2104:30:282020\0\\#,ROProcedureUnspecified,BasisUnspecified,\\0,3\S\S,1,1.8892\\\@

 Total job time:  420.59s(wall), 3272.22s(cpu) 
 Wed Oct 21 04:30:28 2020

        *************************************************************
        *                                                           *
        *  Thank you very much for using Q-Chem.  Have a nice day.  *
        *                                                           *
        *************************************************************


 
User input: 3 of 7 
 
Q-Chem Developer Version!
                  Welcome to Q-Chem
     A Quantum Leap Into The Future Of Chemistry


 Q-Chem 5.1, Q-Chem, Inc., Pleasanton, CA (2018)

 Yihan Shao,  Zhengting Gan,  E. Epifanovsky,  A. T. B. Gilbert,  M. Wormit,  
 J. Kussmann,  A. W. Lange,  A. Behn,  Jia Deng,  Xintian Feng,  D. Ghosh,  
 M. Goldey,  P. R. Horn,  L. D. Jacobson,  I. Kaliman,  T. Kus,  A. Landau,  
 Jie Liu,  E. I. Proynov,  R. M. Richard,  R. P. Steele,  E. J. Sundstrom,  
 H. L. Woodcock III,  P. M. Zimmerman,  D. Zuev,  B. Albrecht,  E. Alguire,  
 S. A. Baeppler,  D. Barton,  Z. Benda,  Y. A. Bernard,  E. J. Berquist,  
 K. B. Bravaya,  H. Burton,  D. Casanova,  Chun-Min Chang,  Yunqing Chen,  
 A. Chien,  K. D. Closser,  M. P. Coons,  S. Coriani,  S. Dasgupta,  
 A. L. Dempwolff,  M. Diedenhofen,  Hainam Do,  R. G. Edgar,  Po-Tung Fang,  
 S. Faraji,  S. Fatehi,  Qingguo Feng,  K. D. Fenk,  J. Fosso-Tande,  
 Qinghui Ge,  A. Ghysels,  G. Gidofalvi,  J. Gomes,  J. Gonthier,  A. Gunina,  
 D. Hait,  M. W. D. Hanson-Heine,  P. H. P. Harbach,  A. W. Hauser,  
 J. E. Herr,  E. G. Hohenstein,  Z. C. Holden,  Kerwin Hui,  B. C. Huynh,  
 T.-C. Jagau,  Hyunjun Ji,  B. Kaduk,  K. Khistyaev,  Jaehoon Kim,  
 P. Klunzinger,  K. Koh,  D. Kosenkov,  L. Koulias,  T. Kowalczyk,  
 C. M. Krauter,  A. Kunitsa,  Ka Un Lao,  A. Laurent,  K. V. Lawler,  
 Joonho Lee,  D. Lefrancois,  S. Lehtola,  D. S. Levine,  Yi-Pei Li,  
 You-Sheng Lin,  Fenglai Liu,  E. Livshits,  A. Luenser,  P. Manohar,  
 E. Mansoor,  S. F. Manzer,  Shan-Ping Mao,  Yuezhi Mao,  N. Mardirossian,  
 A. V. Marenich,  T. Markovich,  L. A. Martinez-Martinez,  S. A. Maurer,  
 N. J. Mayhall,  S. C. McKenzie,  J.-M. Mewes,  A. F. Morrison,  
 J. W. Mullinax,  K. Nanda,  T. S. Nguyen-Beck,  R. Olivares-Amaya,  
 J. A. Parkhill,  T. M. Perrine,  F. Plasser,  P. Pokhilko,  S. Prager,  
 A. Prociuk,  E. Ramos,  D. R. Rehn,  F. Rob,  M. Schneider,  N. Sergueev,  
 S. M. Sharada,  S. Sharma,  D. W. Small,  T. Stauch,  T. Stein,  
 Yu-Chuan Su,  A. J. W. Thom,  A. Tkatchenko,  T. Tsuchimochi,  N. M. Tubman,  
 L. Vogt,  M. L. Vidal,  O. Vydrov,  M. A. Watson,  J. Wenzel,  
 M. de Wergifosse,  T. A. Wesolowski,  A. White,  J. Witte,  A. Yamada,  
 Jun Yang,  K. Yao,  S. Yeganeh,  S. R. Yost,  Zhi-Qiang You,  A. Zech,  
 Igor Ying Zhang,  Xing Zhang,  Yan Zhao,  Ying Zhu,  B. R. Brooks,  
 G. K. L. Chan,  C. J. Cramer,  M. S. Gordon,  W. J. Hehre,  A. Klamt,  
 M. W. Schmidt,  C. D. Sherrill,  D. G. Truhlar,  A. Aspuru-Guzik,  R. Baer,  
 A. T. Bell,  N. A. Besley,  Jeng-Da Chai,  A. E. DePrince, III,  
 R. A. DiStasio Jr.,  A. Dreuw,  B. D. Dunietz,  T. R. Furlani,  
 Chao-Ping Hsu,  Yousung Jung,  Jing Kong,  D. S. Lambrecht,  WanZhen Liang,  
 C. Ochsenfeld,  V. A. Rassolov,  L. V. Slipchenko,  J. E. Subotnik,  
 T. Van Voorhis,  J. M. Herbert,  A. I. Krylov,  P. M. W. Gill,  M. Head-Gordon

 Contributors to earlier versions of Q-Chem not listed above: 
 R. D. Adamson,  B. Austin,  J. Baker,  G. J. O. Beran,  K. Brandhorst,  
 S. T. Brown,  E. F. C. Byrd,  A. K. Chakraborty,  C.-L. Cheng,  
 Siu Hung Chien,  D. M. Chipman,  D. L. Crittenden,  H. Dachsel,  
 R. J. Doerksen,  A. D. Dutoi,  L. Fusti-Molnar,  W. A. Goddard III,  
 A. Golubeva-Zadorozhnaya,  S. R. Gwaltney,  G. Hawkins,  A. Heyden,  
 S. Hirata,  G. Kedziora,  F. J. Keil,  C. Kelley,  Jihan Kim,  R. A. King,  
 R. Z. Khaliullin,  P. P. Korambath,  W. Kurlancheek,  A. M. Lee,  M. S. Lee,  
 S. V. Levchenko,  Ching Yeh Lin,  D. Liotard,  R. C. Lochan,  I. Lotan,  
 P. E. Maslen,  N. Nair,  D. P. O'Neill,  D. Neuhauser,  E. Neuscamman,  
 C. M. Oana,  R. Olson,  B. Peters,  R. Peverati,  P. A. Pieniazek,  
 Y. M. Rhee,  J. Ritchie,  M. A. Rohrdanz,  E. Rosta,  N. J. Russ,  
 H. F. Schaefer III,  N. E. Schultz,  N. Shenvi,  A. C. Simmonett,  A. Sodt,  
 D. Stuck,  K. S. Thanthiriwatte,  V. Vanovschi,  Tao Wang,  A. Warshel,  
 C. F. Williams,  Q. Wu,  X. Xu,  W. Zhang

 Please cite Q-Chem as follows:
 Y. Shao et al., Mol. Phys. 113, 184-215 (2015)
 DOI: 10.1080/00268976.2014.952696

 Q-Chem 5.1.1 for Intel X86 EM64T Linux

 Parts of Q-Chem use Armadillo 8.300.2 (Tropical Shenanigans).
 http://arma.sourceforge.net/

 Q-Chem begins on Wed Oct 21 04:30:28 2020  

Host: n0096.mhg0
0

     Scratch files written to /local/scratch/users/yhljason/S2_XYGJOS_aug-cc-pcVQZ.inp20201021032936//
The previous job contains 0 fragments, simply inherited here
Input Ideriv = 1
Curr. Ideriv = -1
Max.  Ideriv = 1

Checking the input file for inconsistencies... 	...done.

--------------------------------------------------------------
User input:
--------------------------------------------------------------
$molecule
read
$end

$rem

jobtype sp
exchange XYGJOS
xc_grid 000099000590
basis aug-cc-pcVQZ
aux_basis rimp2-aug-cc-pVQZ
max_scf_cycles 200
thresh 14
scf_convergence 8
mem_total 128000
cc_memory 96000
cc_backend xm
mem_static 1500
symmetry false
sym_ignore true
scf_guess read
unrestricted false
scf_algorithm gdm
n_frozen_core 0
$end

$multipole_field
XX -0.0001
$end


--------------------------------------------------------------
 ----------------------------------------------------------------
             Standard Nuclear Orientation (Angstroms)
    I     Atom           X                Y                Z
 ----------------------------------------------------------------
    1      S       0.0000000000     0.0000000000     0.0000000000
    2      S       0.0000000000     0.0000000000     1.8892000000
 ----------------------------------------------------------------
 Nuclear Repulsion Energy =    71.7072654906 hartrees
 There are       17 alpha and       15 beta electrons
 Requested basis set is aug-cc-pCVQZ
 There are 68 shells and 268 basis functions

 Total QAlloc Memory Limit 128000 MB
 Mega-Array Size      1467 MB
 MEM_STATIC part      1500 MB

                       Distance Matrix (Angstroms)
             S (  1)
   S (  2)  1.889200
 
 Applying Cartesian multipole field
    Component          Value
    ---------          -----
     (2,0,0)       -1.00000E-04
 Requested basis set is rimp2-aug-cc-pVQZ
 There are 88 shells and 388 basis functions
 A cutoff of  1.0D-14 yielded   2234 shell pairs
 There are     34742 function pairs (     58743 Cartesian)
 
 -------------------------------------------------------
 OpenMP Integral Computing Module                       
 Release: version 1.0, May 2013, Q-Chem Inc. Pittsburgh 
 -------------------------------------------------------
 Integral Job Info:
 Integral job number is                      11
 Integral operator is                         1
 short-range coefficients                     0
 long-range coefficients              100000000
 Omega coefficients                           0
 if combine SR and LR in K                    0
 Integral screening is                        0
 Integral computing path is                   2
 max size of driver memory is           3200000
 size of driver memory is               1704330
 size of scratch memory is             29435624
 max col of scratch BK array              50625
 max len of scratch array in speh3         2114
 max len of scratch index in speh4           50
 max int batch size is                      520
 min int batch size is                       52
 fixed nKL is                                22
 max L of basis functions is                  4
 order of int derivative is                   0
 number of shells is                         68
 number of basis is                         348
 number of cartesian basis is               348
 number of contracted shell pairs          2234
 number of primitive shell pairs          11054
 maxK2 (contraction) of shell pair          169
 max number of K2 of shell pair               1
 max number of CS2 of shell pair            198
 max number of PS2 of shell pair           2028
 mem total for path MDJ                  752464
 -------------------------------------------------------
 Smallest overlap matrix eigenvalue = 2.72E-05
 Guess MOs from SCF MO coefficient file
 Reading MOs from coefficient file
 Reading MOs from coefficient file
 A restricted hybrid HF-DFT SCF calculation will be
 performed using Geometric Direct Minimization
 Exchange:     0.2000 Hartree-Fock + 0.0800 Slater + 0.7200 B88
 Correlation:  0.1900 VWN1RPA + 0.8100 LYP
 Using Euler-Maclaurin-Lebedev (99,590) quadrature formula
 SCF converges when RMS gradient is below 1.0E-08
Using Q-Chem read-in guess as SCF_GUESS READ specified.

 using 8 threads for integral computing
 -------------------------------------------------------
 OpenMP Integral computing Module                
 Release: version 2.0, May 2017, Q-Chem Inc. Pleasanton 
 -------------------------------------------------------
TIMEINFO->: J/JK contribution 279.74 sec.
 -------------------------------------------------------
 OpenMP BLAS3 based DFT computing Module                
 Release: version 1.0, May 2013, Q-Chem Inc. Pittsburgh 
 -------------------------------------------------------
 ---------------------------------------
  Cycle       Energy        RMS Gradient
 ---------------------------------------
    1    -796.4521298613      1.36E-03 Normal BFGS step
TIMEINFO->: J/JK contribution 272.40 sec.
    2    -796.4521325852      7.63E-04 Normal BFGS step
TIMEINFO->: J/JK contribution 266.68 sec.
    3    -796.4521332529      1.68E-04 Normal BFGS step
TIMEINFO->: J/JK contribution 260.33 sec.
    4    -796.4521333135      8.31E-05 Normal BFGS step
TIMEINFO->: J/JK contribution 261.06 sec.
    5    -796.4521333315      1.57E-05 Normal BFGS step
TIMEINFO->: J/JK contribution 260.99 sec.
    6    -796.4521333323      3.82E-06 Normal BFGS step
TIMEINFO->: J/JK contribution 262.99 sec.
    7    -796.4521333323      1.35E-06 Normal BFGS step
TIMEINFO->: J/JK contribution 254.44 sec.
   GDM::WARNING energy changes are now smaller than effective accuracy.
   GDM::        calculation will continue, but THRESH should be increased
   GDM::        or SCF_CONVERGENCE decreased.
   GDM::        effective_thresh =   1.700000000000000E-010
    8    -796.4521333323      2.93E-07 Normal BFGS step
TIMEINFO->: J/JK contribution 249.41 sec.
    9    -796.4521333323      8.01E-09 Convergence criterion met
 ---------------------------------------
 B3LYP orbitals are now ready for the XYGJ-OS calculation.
 XYGJ-OS energy = Exch (0.7731 HF  + 0.2269 Slater) + 
                  Corr (0.2754 LYP + 0.2309 VWN1RPA + 0.4364 OS-MP2)
 SCF time:  CPU 2477.95 s  wall 313.57 s
 SCF   energy in the final basis set = -795.27766852
 Total energy in the final basis set = -795.27766852
 Entering Scaled Opposite Spin MP2
 NBasAux in rimp2.F =          388

 OS-MP2 job begins now...

 SOS scaling factor =  0.4
 Form (P|Q)**(-1/2)...
 
 Form (ia|P)...
 Form BiaQ = (ia|P)*(P|Q)**(-1/2)...
 Form (ia|P)...
 Form BiaQ = (ia|P)*(P|Q)**(-1/2)...
 Laplace quadrature loop begins
 Laplace point 1: correlation energy     =        -0.3962521404
 Laplace point 2: correlation energy     =        -0.2332218256
 Laplace point 3: correlation energy     =        -0.1383398842
 Laplace point 4: correlation energy     =        -0.1213477543
 Laplace point 5: correlation energy     =        -0.0572263823
 Laplace point 6: correlation energy     =        -0.0085400039
 Laplace point 7: correlation energy     =        -0.0001961982
 
 singles contribution not yet available for XYGJ-OS 
 Total OS-MP2 correlation energy         =        -0.9551241889

 Total XYGJ-OS energy                    =      -795.6966235927
 
 ------------------------------------------------------------------------------
                     SOSMP2        : Timing summary (seconds)
 ------------------------------------------------------------------------------
     job step          cpu (% of tot)      sys (% of tot)     wall (% of tot)
 ------------------------------------------------------------------------------
  Form inv (P|Q)    0.1102E+01 ( 1.6)   0.6000E-05 ( 1.9)   0.1386E+00 ( 1.4)
  Form (ia|P)       0.5968E+02 (88.6)   0.2750E-03 (88.4)   0.7504E+01 (76.5)
  Form  BiaQ        0.2942E+01 ( 4.4)   0.1200E-04 ( 3.9)   0.3695E+00 ( 3.8)
  LP orbitals       0.4815E+00 ( 0.7)   0.6000E-05 ( 1.9)   0.3071E+00 ( 3.1)
  Form  X(PQ)       0.2205E+01 ( 3.3)   0.8000E-05 ( 2.6)   0.1296E+01 (13.2)
  Increment EMP2    0.7930E-01 ( 0.1)   0.0000E+00 ( 0.0)   0.7987E-01 ( 0.8)
 ------------------------------------------------------------------------------
   Grand Totals     0.6733E+02          0.3110E-03          0.9807E+01
 ------------------------------------------------------------------------------
 
 --------------------------------------------------------------
 
                    Orbital Energies (a.u.)
 --------------------------------------------------------------
 
 Alpha MOs
 -- Occupied --
-88.907 -88.907  -7.987  -7.986  -5.947  -5.946  -5.948  -5.948
 -5.948  -5.948  -0.845  -0.635  -0.406  -0.382  -0.382  -0.248
 -0.247
 -- Virtual --
 -0.024   0.011   0.035   0.037   0.040   0.046   0.065   0.067
  0.088   0.088   0.126   0.138   0.138   0.163   0.181   0.181
  0.217   0.218   0.227   0.275   0.277   0.319   0.332   0.331
  0.331   0.332   0.365   0.371   0.392   0.393   0.403   0.403
  0.408   0.408   0.445   0.488   0.488   0.499   0.499   0.524
  0.524   0.569   0.653   0.654   0.662   0.662   0.701   0.754
  0.781   0.782   0.891   1.039   1.039   1.073   1.073   1.105
  1.167   1.167   1.167   1.187   1.187   1.189   1.190   1.200
  1.200   1.211   1.211   1.244   1.265   1.265   1.306   1.306
  1.344   1.344   1.369   1.369   1.375   1.375   1.440   1.440
  1.501   1.501   1.503   1.513   1.524   1.525   1.561   1.561
  1.630   1.630   1.912   1.913   1.913   1.945   2.044   2.044
  2.044   2.412   2.413   2.500   2.508   2.990   2.990   3.056
  3.056   3.069   3.069   3.081   3.188   3.234   3.234   3.244
  3.244   3.288   3.288   3.282   3.282   3.345   3.345   3.417
  3.417   3.444   3.444   3.465   3.465   3.492   3.531   3.531
  3.537   3.537   3.652   3.652   3.692   3.692   3.747   3.747
  3.899   3.911   4.016   4.016   4.470   4.470   4.747   4.747
  4.810   5.279   5.280   5.764   6.050   7.900   8.178   9.493
  9.493   9.570   9.570   9.598   9.598   9.952   9.952  10.042
 10.688  15.425  15.425  15.792  15.792  16.122  16.315  17.999
 17.999  18.008  18.008  18.013  18.014  18.014  18.039  18.039
 18.063  18.063  18.147  18.147  18.404  27.378  27.727  30.908
 30.908  30.960  30.960  30.983  30.983  31.216  31.216  31.254
 31.728  44.950  44.950  45.269  45.269  45.561  45.722  54.666
 54.666  54.666  54.666  54.667  54.667  54.668  54.668  54.668
 54.668  54.669  54.668  54.668  54.670  54.670  54.672  54.672
 54.672  64.768  64.768  64.774  64.774  64.776  64.776  64.776
 64.793  64.793  64.804  64.804  64.840  64.841  64.942  80.943
 81.385  92.365  92.365  92.403  92.403  92.420  92.420  92.590
 92.590  92.600  92.951 144.178 144.178 144.391 144.391 144.601
144.685 383.513 385.422
 
 Beta MOs
 -- Occupied --
-88.901 -88.901  -7.981  -7.981  -5.944  -5.943  -5.936  -5.936
 -5.936  -5.936  -0.817  -0.583  -0.382  -0.335  -0.335
 -- Virtual --
 -0.143  -0.143  -0.011   0.014   0.037   0.039   0.046   0.047
  0.068   0.070   0.099   0.099   0.130   0.152   0.152   0.167
  0.193   0.193   0.222   0.224   0.231   0.281   0.282   0.323
  0.349   0.350   0.350   0.349   0.373   0.378   0.402   0.403
  0.408   0.408   0.440   0.440   0.453   0.503   0.504   0.507
  0.507   0.533   0.533   0.578   0.658   0.659   0.671   0.671
  0.709   0.766   0.795   0.796   0.900   1.048   1.048   1.098
  1.098   1.112   1.182   1.194   1.194   1.199   1.199   1.213
  1.213   1.217   1.217   1.226   1.226   1.252   1.292   1.292
  1.331   1.331   1.376   1.376   1.384   1.385   1.395   1.395
  1.460   1.460   1.514   1.514   1.514   1.524   1.540   1.540
  1.574   1.574   1.645   1.645   1.925   1.925   1.925   1.967
  2.059   2.062   2.062   2.432   2.432   2.508   2.526   3.010
  3.010   3.073   3.073   3.092   3.092   3.095   3.200   3.252
  3.252   3.255   3.255   3.309   3.309   3.323   3.323   3.386
  3.386   3.445   3.445   3.473   3.473   3.507   3.507   3.510
  3.558   3.558   3.579   3.579   3.671   3.671   3.723   3.723
  3.770   3.770   3.918   3.925   4.039   4.039   4.485   4.485
  4.768   4.768   4.818   5.300   5.301   5.773   6.056   7.916
  8.196   9.511   9.511   9.588   9.588   9.608   9.608   9.963
  9.963  10.049  10.695  15.441  15.441  15.808  15.809  16.128
 16.321  18.002  18.002  18.010  18.010  18.015  18.017  18.017
 18.041  18.041  18.066  18.066  18.149  18.149  18.406  27.385
 27.734  30.920  30.920  30.972  30.972  30.990  30.990  31.223
 31.223  31.260  31.734  44.960  44.960  45.280  45.280  45.565
 45.726  54.668  54.668  54.668  54.668  54.670  54.670  54.671
 54.671  54.672  54.672  54.671  54.672  54.672  54.672  54.672
 54.674  54.674  54.674  64.778  64.778  64.781  64.781  64.781
 64.786  64.786  64.798  64.798  64.811  64.811  64.846  64.846
 64.947  80.951  81.393  92.379  92.379  92.417  92.417  92.428
 92.428  92.598  92.598  92.607  92.957 144.186 144.186 144.399
144.399 144.603 144.688 383.517 385.427
 --------------------------------------------------------------
 
          Ground-State Mulliken Net Atomic Charges

     Atom                 Charge (a.u.)
  ----------------------------------------
      1 S                    -0.000000
      2 S                     0.000000
  ----------------------------------------
  Sum of atomic charges =    -0.000000

 -----------------------------------------------------------------
                    Cartesian Multipole Moments
 -----------------------------------------------------------------
    Charge (ESU x 10^10)
                -0.0000
    Dipole Moment (Debye)
         X      -0.0000      Y       0.0000      Z       0.0000
       Tot       0.0000
    Quadrupole Moments (Debye-Ang)
        XX     -25.9226     XY      -0.0000     YY     -25.9428
        XZ      -0.0000     YZ       0.0000     ZZ     -24.2395
    Octopole Moments (Debye-Ang^2)
       XXX      -0.0000    XXY       0.0000    XYY      -0.0000
       YYY       0.0000    XXZ     -24.4865    XYZ       0.0000
       YYZ     -24.5055    XZZ      -0.0000    YZZ       0.0000
       ZZZ     -68.6900
    Hexadecapole Moments (Debye-Ang^3)
      XXXX     -35.1386   XXXY      -0.0000   XXYY     -11.7291
      XYYY      -0.0000   YYYY     -35.2359   XXXZ      -0.0000
      XXYZ       0.0000   XYYZ      -0.0000   YYYZ       0.0000
      XXZZ     -58.0117   XYZZ       0.0000   YYZZ     -58.0681
      XZZZ      -0.0000   YZZZ       0.0000   ZZZZ    -289.1636
 -----------------------------------------------------------------
Archival summary:
1\1\n0096.mhg0\SP\ROProcedureUnspecified\BasisUnspecified\2(3)\yhljason\WedOct2104:35:532020WedOct2104:35:532020\0\\#,ROProcedureUnspecified,BasisUnspecified,\\0,3\S\S,1,1.8892\\\@

 Total job time:  324.96s(wall), 2553.50s(cpu) 
 Wed Oct 21 04:35:53 2020

        *************************************************************
        *                                                           *
        *  Thank you very much for using Q-Chem.  Have a nice day.  *
        *                                                           *
        *************************************************************


 
User input: 4 of 7 
 
Q-Chem Developer Version!
                  Welcome to Q-Chem
     A Quantum Leap Into The Future Of Chemistry


 Q-Chem 5.1, Q-Chem, Inc., Pleasanton, CA (2018)

 Yihan Shao,  Zhengting Gan,  E. Epifanovsky,  A. T. B. Gilbert,  M. Wormit,  
 J. Kussmann,  A. W. Lange,  A. Behn,  Jia Deng,  Xintian Feng,  D. Ghosh,  
 M. Goldey,  P. R. Horn,  L. D. Jacobson,  I. Kaliman,  T. Kus,  A. Landau,  
 Jie Liu,  E. I. Proynov,  R. M. Richard,  R. P. Steele,  E. J. Sundstrom,  
 H. L. Woodcock III,  P. M. Zimmerman,  D. Zuev,  B. Albrecht,  E. Alguire,  
 S. A. Baeppler,  D. Barton,  Z. Benda,  Y. A. Bernard,  E. J. Berquist,  
 K. B. Bravaya,  H. Burton,  D. Casanova,  Chun-Min Chang,  Yunqing Chen,  
 A. Chien,  K. D. Closser,  M. P. Coons,  S. Coriani,  S. Dasgupta,  
 A. L. Dempwolff,  M. Diedenhofen,  Hainam Do,  R. G. Edgar,  Po-Tung Fang,  
 S. Faraji,  S. Fatehi,  Qingguo Feng,  K. D. Fenk,  J. Fosso-Tande,  
 Qinghui Ge,  A. Ghysels,  G. Gidofalvi,  J. Gomes,  J. Gonthier,  A. Gunina,  
 D. Hait,  M. W. D. Hanson-Heine,  P. H. P. Harbach,  A. W. Hauser,  
 J. E. Herr,  E. G. Hohenstein,  Z. C. Holden,  Kerwin Hui,  B. C. Huynh,  
 T.-C. Jagau,  Hyunjun Ji,  B. Kaduk,  K. Khistyaev,  Jaehoon Kim,  
 P. Klunzinger,  K. Koh,  D. Kosenkov,  L. Koulias,  T. Kowalczyk,  
 C. M. Krauter,  A. Kunitsa,  Ka Un Lao,  A. Laurent,  K. V. Lawler,  
 Joonho Lee,  D. Lefrancois,  S. Lehtola,  D. S. Levine,  Yi-Pei Li,  
 You-Sheng Lin,  Fenglai Liu,  E. Livshits,  A. Luenser,  P. Manohar,  
 E. Mansoor,  S. F. Manzer,  Shan-Ping Mao,  Yuezhi Mao,  N. Mardirossian,  
 A. V. Marenich,  T. Markovich,  L. A. Martinez-Martinez,  S. A. Maurer,  
 N. J. Mayhall,  S. C. McKenzie,  J.-M. Mewes,  A. F. Morrison,  
 J. W. Mullinax,  K. Nanda,  T. S. Nguyen-Beck,  R. Olivares-Amaya,  
 J. A. Parkhill,  T. M. Perrine,  F. Plasser,  P. Pokhilko,  S. Prager,  
 A. Prociuk,  E. Ramos,  D. R. Rehn,  F. Rob,  M. Schneider,  N. Sergueev,  
 S. M. Sharada,  S. Sharma,  D. W. Small,  T. Stauch,  T. Stein,  
 Yu-Chuan Su,  A. J. W. Thom,  A. Tkatchenko,  T. Tsuchimochi,  N. M. Tubman,  
 L. Vogt,  M. L. Vidal,  O. Vydrov,  M. A. Watson,  J. Wenzel,  
 M. de Wergifosse,  T. A. Wesolowski,  A. White,  J. Witte,  A. Yamada,  
 Jun Yang,  K. Yao,  S. Yeganeh,  S. R. Yost,  Zhi-Qiang You,  A. Zech,  
 Igor Ying Zhang,  Xing Zhang,  Yan Zhao,  Ying Zhu,  B. R. Brooks,  
 G. K. L. Chan,  C. J. Cramer,  M. S. Gordon,  W. J. Hehre,  A. Klamt,  
 M. W. Schmidt,  C. D. Sherrill,  D. G. Truhlar,  A. Aspuru-Guzik,  R. Baer,  
 A. T. Bell,  N. A. Besley,  Jeng-Da Chai,  A. E. DePrince, III,  
 R. A. DiStasio Jr.,  A. Dreuw,  B. D. Dunietz,  T. R. Furlani,  
 Chao-Ping Hsu,  Yousung Jung,  Jing Kong,  D. S. Lambrecht,  WanZhen Liang,  
 C. Ochsenfeld,  V. A. Rassolov,  L. V. Slipchenko,  J. E. Subotnik,  
 T. Van Voorhis,  J. M. Herbert,  A. I. Krylov,  P. M. W. Gill,  M. Head-Gordon

 Contributors to earlier versions of Q-Chem not listed above: 
 R. D. Adamson,  B. Austin,  J. Baker,  G. J. O. Beran,  K. Brandhorst,  
 S. T. Brown,  E. F. C. Byrd,  A. K. Chakraborty,  C.-L. Cheng,  
 Siu Hung Chien,  D. M. Chipman,  D. L. Crittenden,  H. Dachsel,  
 R. J. Doerksen,  A. D. Dutoi,  L. Fusti-Molnar,  W. A. Goddard III,  
 A. Golubeva-Zadorozhnaya,  S. R. Gwaltney,  G. Hawkins,  A. Heyden,  
 S. Hirata,  G. Kedziora,  F. J. Keil,  C. Kelley,  Jihan Kim,  R. A. King,  
 R. Z. Khaliullin,  P. P. Korambath,  W. Kurlancheek,  A. M. Lee,  M. S. Lee,  
 S. V. Levchenko,  Ching Yeh Lin,  D. Liotard,  R. C. Lochan,  I. Lotan,  
 P. E. Maslen,  N. Nair,  D. P. O'Neill,  D. Neuhauser,  E. Neuscamman,  
 C. M. Oana,  R. Olson,  B. Peters,  R. Peverati,  P. A. Pieniazek,  
 Y. M. Rhee,  J. Ritchie,  M. A. Rohrdanz,  E. Rosta,  N. J. Russ,  
 H. F. Schaefer III,  N. E. Schultz,  N. Shenvi,  A. C. Simmonett,  A. Sodt,  
 D. Stuck,  K. S. Thanthiriwatte,  V. Vanovschi,  Tao Wang,  A. Warshel,  
 C. F. Williams,  Q. Wu,  X. Xu,  W. Zhang

 Please cite Q-Chem as follows:
 Y. Shao et al., Mol. Phys. 113, 184-215 (2015)
 DOI: 10.1080/00268976.2014.952696

 Q-Chem 5.1.1 for Intel X86 EM64T Linux

 Parts of Q-Chem use Armadillo 8.300.2 (Tropical Shenanigans).
 http://arma.sourceforge.net/

 Q-Chem begins on Wed Oct 21 04:35:53 2020  

Host: n0096.mhg0
0

     Scratch files written to /local/scratch/users/yhljason/S2_XYGJOS_aug-cc-pcVQZ.inp20201021032936//
The previous job contains 0 fragments, simply inherited here
Input Ideriv = 1
Curr. Ideriv = -1
Max.  Ideriv = 1

Checking the input file for inconsistencies... 	...done.

--------------------------------------------------------------
User input:
--------------------------------------------------------------
$molecule
read
$end

$rem

jobtype sp
exchange XYGJOS
xc_grid 000099000590
basis aug-cc-pcVQZ
aux_basis rimp2-aug-cc-pVQZ
max_scf_cycles 200
thresh 14
scf_convergence 8
mem_total 128000
cc_memory 96000
cc_backend xm
mem_static 1500
symmetry false
sym_ignore true
scf_guess read
unrestricted false
scf_algorithm gdm
n_frozen_core 0
$end

$multipole_field
YY 0.0001
$end


--------------------------------------------------------------
 ----------------------------------------------------------------
             Standard Nuclear Orientation (Angstroms)
    I     Atom           X                Y                Z
 ----------------------------------------------------------------
    1      S       0.0000000000     0.0000000000     0.0000000000
    2      S       0.0000000000     0.0000000000     1.8892000000
 ----------------------------------------------------------------
 Nuclear Repulsion Energy =    71.7072654906 hartrees
 There are       17 alpha and       15 beta electrons
 Requested basis set is aug-cc-pCVQZ
 There are 68 shells and 268 basis functions

 Total QAlloc Memory Limit 128000 MB
 Mega-Array Size      1467 MB
 MEM_STATIC part      1500 MB

                       Distance Matrix (Angstroms)
             S (  1)
   S (  2)  1.889200
 
 Applying Cartesian multipole field
    Component          Value
    ---------          -----
     (0,2,0)        1.00000E-04
 Requested basis set is rimp2-aug-cc-pVQZ
 There are 88 shells and 388 basis functions
 A cutoff of  1.0D-14 yielded   2234 shell pairs
 There are     34742 function pairs (     58743 Cartesian)
 
 -------------------------------------------------------
 OpenMP Integral Computing Module                       
 Release: version 1.0, May 2013, Q-Chem Inc. Pittsburgh 
 -------------------------------------------------------
 Integral Job Info:
 Integral job number is                      11
 Integral operator is                         1
 short-range coefficients                     0
 long-range coefficients              100000000
 Omega coefficients                           0
 if combine SR and LR in K                    0
 Integral screening is                        0
 Integral computing path is                   2
 max size of driver memory is           3200000
 size of driver memory is               1704330
 size of scratch memory is             29435624
 max col of scratch BK array              50625
 max len of scratch array in speh3         2114
 max len of scratch index in speh4           50
 max int batch size is                      520
 min int batch size is                       52
 fixed nKL is                                22
 max L of basis functions is                  4
 order of int derivative is                   0
 number of shells is                         68
 number of basis is                         348
 number of cartesian basis is               348
 number of contracted shell pairs          2234
 number of primitive shell pairs          11054
 maxK2 (contraction) of shell pair          169
 max number of K2 of shell pair               1
 max number of CS2 of shell pair            198
 max number of PS2 of shell pair           2028
 mem total for path MDJ                  752464
 -------------------------------------------------------
 Smallest overlap matrix eigenvalue = 2.72E-05
 Guess MOs from SCF MO coefficient file
 Reading MOs from coefficient file
 Reading MOs from coefficient file
 A restricted hybrid HF-DFT SCF calculation will be
 performed using Geometric Direct Minimization
 Exchange:     0.2000 Hartree-Fock + 0.0800 Slater + 0.7200 B88
 Correlation:  0.1900 VWN1RPA + 0.8100 LYP
 Using Euler-Maclaurin-Lebedev (99,590) quadrature formula
 SCF converges when RMS gradient is below 1.0E-08
Using Q-Chem read-in guess as SCF_GUESS READ specified.

 using 8 threads for integral computing
 -------------------------------------------------------
 OpenMP Integral computing Module                
 Release: version 2.0, May 2017, Q-Chem Inc. Pleasanton 
 -------------------------------------------------------
TIMEINFO->: J/JK contribution 280.83 sec.
 -------------------------------------------------------
 OpenMP BLAS3 based DFT computing Module                
 Release: version 1.0, May 2013, Q-Chem Inc. Pittsburgh 
 -------------------------------------------------------
 ---------------------------------------
  Cycle       Energy        RMS Gradient
 ---------------------------------------
    1    -796.4559893931      9.01E-04 Normal BFGS step
TIMEINFO->: J/JK contribution 274.61 sec.
    2    -796.4559906169      6.28E-04 Normal BFGS step
TIMEINFO->: J/JK contribution 267.43 sec.
    3    -796.4559913096      1.15E-04 Normal BFGS step
TIMEINFO->: J/JK contribution 273.21 sec.
    4    -796.4559913261      7.19E-05 Normal BFGS step
TIMEINFO->: J/JK contribution 248.35 sec.
    5    -796.4559913428      2.55E-06 Normal BFGS step
TIMEINFO->: J/JK contribution 261.77 sec.
    6    -796.4559913429      1.00E-06 Normal BFGS step
TIMEINFO->: J/JK contribution 262.08 sec.
    7    -796.4559913429      5.86E-07 Normal BFGS step
TIMEINFO->: J/JK contribution 248.74 sec.
    8    -796.4559913429      1.38E-06 Normal BFGS step
TIMEINFO->: J/JK contribution 246.90 sec.
    9    -796.4559913429      4.44E-08 Normal BFGS step
TIMEINFO->: J/JK contribution 231.88 sec.
   10    -796.4559913429      1.77E-08 Normal BFGS step
TIMEINFO->: J/JK contribution 221.26 sec.
   GDM::WARNING energy changes are now smaller than effective accuracy.
   GDM::        calculation will continue, but THRESH should be increased
   GDM::        or SCF_CONVERGENCE decreased.
   GDM::        effective_thresh =   1.700000000000000E-010
   11    -796.4559913429      3.07E-10 Convergence criterion met
 ---------------------------------------
 B3LYP orbitals are now ready for the XYGJ-OS calculation.
 XYGJ-OS energy = Exch (0.7731 HF  + 0.2269 Slater) + 
                  Corr (0.2754 LYP + 0.2309 VWN1RPA + 0.4364 OS-MP2)
 SCF time:  CPU 2950.26 s  wall 376.55 s
 SCF   energy in the final basis set = -795.28154352
 Total energy in the final basis set = -795.28154352
 Entering Scaled Opposite Spin MP2
 NBasAux in rimp2.F =          388

 OS-MP2 job begins now...

 SOS scaling factor =  0.4
 Form (P|Q)**(-1/2)...
 
 Form (ia|P)...
 Form BiaQ = (ia|P)*(P|Q)**(-1/2)...
 Form (ia|P)...
 Form BiaQ = (ia|P)*(P|Q)**(-1/2)...
 Laplace quadrature loop begins
 Laplace point 1: correlation energy     =        -0.3962412963
 Laplace point 2: correlation energy     =        -0.2332037150
 Laplace point 3: correlation energy     =        -0.1383212374
 Laplace point 4: correlation energy     =        -0.1213516113
 Laplace point 5: correlation energy     =        -0.0572483398
 Laplace point 6: correlation energy     =        -0.0085503539
 Laplace point 7: correlation energy     =        -0.0001970718
 
 singles contribution not yet available for XYGJ-OS 
 Total OS-MP2 correlation energy         =        -0.9551136253

 Total XYGJ-OS energy                    =      -795.7004934391
 
 ------------------------------------------------------------------------------
                     SOSMP2        : Timing summary (seconds)
 ------------------------------------------------------------------------------
     job step          cpu (% of tot)      sys (% of tot)     wall (% of tot)
 ------------------------------------------------------------------------------
  Form inv (P|Q)    0.9695E+00 ( 1.4)   0.7000E-05 ( 2.3)   0.1396E+00 ( 1.4)
  Form (ia|P)       0.5949E+02 (88.7)   0.2580E-03 (85.7)   0.7480E+01 (76.9)
  Form  BiaQ        0.2943E+01 ( 4.4)   0.1700E-04 ( 5.6)   0.3700E+00 ( 3.8)
  LP orbitals       0.4994E+00 ( 0.7)   0.6000E-05 ( 2.0)   0.3007E+00 ( 3.1)
  Form  X(PQ)       0.2273E+01 ( 3.4)   0.8000E-05 ( 2.7)   0.1249E+01 (12.9)
  Increment EMP2    0.7187E-01 ( 0.1)   0.1000E-05 ( 0.3)   0.7214E-01 ( 0.7)
 ------------------------------------------------------------------------------
   Grand Totals     0.6705E+02          0.3010E-03          0.9723E+01
 ------------------------------------------------------------------------------
 
 --------------------------------------------------------------
 
                    Orbital Energies (a.u.)
 --------------------------------------------------------------
 
 Alpha MOs
 -- Occupied --
-88.908 -88.908  -7.987  -7.987  -5.948  -5.947  -5.948  -5.948
 -5.948  -5.948  -0.845  -0.635  -0.407  -0.383  -0.382  -0.248
 -0.248
 -- Virtual --
 -0.025   0.008   0.031   0.033   0.037   0.044   0.061   0.063
  0.086   0.086   0.123   0.136   0.137   0.160   0.179   0.179
  0.213   0.215   0.225   0.273   0.274   0.317   0.330   0.329
  0.329   0.331   0.363   0.369   0.390   0.391   0.402   0.402
[...]
        *************************************************************


 
User input: 7 of 7 
 
Q-Chem Developer Version!
                  Welcome to Q-Chem
     A Quantum Leap Into The Future Of Chemistry


 Q-Chem 5.1, Q-Chem, Inc., Pleasanton, CA (2018)

 Yihan Shao,  Zhengting Gan,  E. Epifanovsky,  A. T. B. Gilbert,  M. Wormit,  
 J. Kussmann,  A. W. Lange,  A. Behn,  Jia Deng,  Xintian Feng,  D. Ghosh,  
 M. Goldey,  P. R. Horn,  L. D. Jacobson,  I. Kaliman,  T. Kus,  A. Landau,  
 Jie Liu,  E. I. Proynov,  R. M. Richard,  R. P. Steele,  E. J. Sundstrom,  
 H. L. Woodcock III,  P. M. Zimmerman,  D. Zuev,  B. Albrecht,  E. Alguire,  
 S. A. Baeppler,  D. Barton,  Z. Benda,  Y. A. Bernard,  E. J. Berquist,  
 K. B. Bravaya,  H. Burton,  D. Casanova,  Chun-Min Chang,  Yunqing Chen,  
 A. Chien,  K. D. Closser,  M. P. Coons,  S. Coriani,  S. Dasgupta,  
 A. L. Dempwolff,  M. Diedenhofen,  Hainam Do,  R. G. Edgar,  Po-Tung Fang,  
 S. Faraji,  S. Fatehi,  Qingguo Feng,  K. D. Fenk,  J. Fosso-Tande,  
 Qinghui Ge,  A. Ghysels,  G. Gidofalvi,  J. Gomes,  J. Gonthier,  A. Gunina,  
 D. Hait,  M. W. D. Hanson-Heine,  P. H. P. Harbach,  A. W. Hauser,  
 J. E. Herr,  E. G. Hohenstein,  Z. C. Holden,  Kerwin Hui,  B. C. Huynh,  
 T.-C. Jagau,  Hyunjun Ji,  B. Kaduk,  K. Khistyaev,  Jaehoon Kim,  
 P. Klunzinger,  K. Koh,  D. Kosenkov,  L. Koulias,  T. Kowalczyk,  
 C. M. Krauter,  A. Kunitsa,  Ka Un Lao,  A. Laurent,  K. V. Lawler,  
 Joonho Lee,  D. Lefrancois,  S. Lehtola,  D. S. Levine,  Yi-Pei Li,  
 You-Sheng Lin,  Fenglai Liu,  E. Livshits,  A. Luenser,  P. Manohar,  
 E. Mansoor,  S. F. Manzer,  Shan-Ping Mao,  Yuezhi Mao,  N. Mardirossian,  
 A. V. Marenich,  T. Markovich,  L. A. Martinez-Martinez,  S. A. Maurer,  
 N. J. Mayhall,  S. C. McKenzie,  J.-M. Mewes,  A. F. Morrison,  
 J. W. Mullinax,  K. Nanda,  T. S. Nguyen-Beck,  R. Olivares-Amaya,  
 J. A. Parkhill,  T. M. Perrine,  F. Plasser,  P. Pokhilko,  S. Prager,  
 A. Prociuk,  E. Ramos,  D. R. Rehn,  F. Rob,  M. Schneider,  N. Sergueev,  
 S. M. Sharada,  S. Sharma,  D. W. Small,  T. Stauch,  T. Stein,  
 Yu-Chuan Su,  A. J. W. Thom,  A. Tkatchenko,  T. Tsuchimochi,  N. M. Tubman,  
 L. Vogt,  M. L. Vidal,  O. Vydrov,  M. A. Watson,  J. Wenzel,  
 M. de Wergifosse,  T. A. Wesolowski,  A. White,  J. Witte,  A. Yamada,  
 Jun Yang,  K. Yao,  S. Yeganeh,  S. R. Yost,  Zhi-Qiang You,  A. Zech,  
 Igor Ying Zhang,  Xing Zhang,  Yan Zhao,  Ying Zhu,  B. R. Brooks,  
 G. K. L. Chan,  C. J. Cramer,  M. S. Gordon,  W. J. Hehre,  A. Klamt,  
 M. W. Schmidt,  C. D. Sherrill,  D. G. Truhlar,  A. Aspuru-Guzik,  R. Baer,  
 A. T. Bell,  N. A. Besley,  Jeng-Da Chai,  A. E. DePrince, III,  
 R. A. DiStasio Jr.,  A. Dreuw,  B. D. Dunietz,  T. R. Furlani,  
 Chao-Ping Hsu,  Yousung Jung,  Jing Kong,  D. S. Lambrecht,  WanZhen Liang,  
 C. Ochsenfeld,  V. A. Rassolov,  L. V. Slipchenko,  J. E. Subotnik,  
 T. Van Voorhis,  J. M. Herbert,  A. I. Krylov,  P. M. W. Gill,  M. Head-Gordon

 Contributors to earlier versions of Q-Chem not listed above: 
 R. D. Adamson,  B. Austin,  J. Baker,  G. J. O. Beran,  K. Brandhorst,  
 S. T. Brown,  E. F. C. Byrd,  A. K. Chakraborty,  C.-L. Cheng,  
 Siu Hung Chien,  D. M. Chipman,  D. L. Crittenden,  H. Dachsel,  
 R. J. Doerksen,  A. D. Dutoi,  L. Fusti-Molnar,  W. A. Goddard III,  
 A. Golubeva-Zadorozhnaya,  S. R. Gwaltney,  G. Hawkins,  A. Heyden,  
 S. Hirata,  G. Kedziora,  F. J. Keil,  C. Kelley,  Jihan Kim,  R. A. King,  
 R. Z. Khaliullin,  P. P. Korambath,  W. Kurlancheek,  A. M. Lee,  M. S. Lee,  
 S. V. Levchenko,  Ching Yeh Lin,  D. Liotard,  R. C. Lochan,  I. Lotan,  
 P. E. Maslen,  N. Nair,  D. P. O'Neill,  D. Neuhauser,  E. Neuscamman,  
 C. M. Oana,  R. Olson,  B. Peters,  R. Peverati,  P. A. Pieniazek,  
 Y. M. Rhee,  J. Ritchie,  M. A. Rohrdanz,  E. Rosta,  N. J. Russ,  
 H. F. Schaefer III,  N. E. Schultz,  N. Shenvi,  A. C. Simmonett,  A. Sodt,  
 D. Stuck,  K. S. Thanthiriwatte,  V. Vanovschi,  Tao Wang,  A. Warshel,  
 C. F. Williams,  Q. Wu,  X. Xu,  W. Zhang

 Please cite Q-Chem as follows:
 Y. Shao et al., Mol. Phys. 113, 184-215 (2015)
 DOI: 10.1080/00268976.2014.952696

 Q-Chem 5.1.1 for Intel X86 EM64T Linux

 Parts of Q-Chem use Armadillo 8.300.2 (Tropical Shenanigans).
 http://arma.sourceforge.net/

 Q-Chem begins on Wed Oct 21 04:56:01 2020  

Host: n0096.mhg0
0

     Scratch files written to /local/scratch/users/yhljason/S2_XYGJOS_aug-cc-pcVQZ.inp20201021032936//
The previous job contains 0 fragments, simply inherited here
Input Ideriv = 1
Curr. Ideriv = -1
Max.  Ideriv = 1

Checking the input file for inconsistencies... 	...done.

--------------------------------------------------------------
User input:
--------------------------------------------------------------
$molecule
read
$end

$rem

jobtype sp
exchange XYGJOS
xc_grid 000099000590
basis aug-cc-pcVQZ
aux_basis rimp2-aug-cc-pVQZ
max_scf_cycles 200
thresh 14
scf_convergence 8
mem_total 128000
cc_memory 96000
cc_backend xm
mem_static 1500
symmetry false
sym_ignore true
scf_guess read
unrestricted false
scf_algorithm gdm
n_frozen_core 0
$end

$multipole_field
ZZ -0.0001
$end

--------------------------------------------------------------
 ----------------------------------------------------------------
             Standard Nuclear Orientation (Angstroms)
    I     Atom           X                Y                Z
 ----------------------------------------------------------------
    1      S       0.0000000000     0.0000000000     0.0000000000
    2      S       0.0000000000     0.0000000000     1.8892000000
 ----------------------------------------------------------------
 Nuclear Repulsion Energy =    71.7072654906 hartrees
 There are       17 alpha and       15 beta electrons
 Requested basis set is aug-cc-pCVQZ
 There are 68 shells and 268 basis functions

 Total QAlloc Memory Limit 128000 MB
 Mega-Array Size      1467 MB
 MEM_STATIC part      1500 MB

                       Distance Matrix (Angstroms)
             S (  1)
   S (  2)  1.889200
 
 Applying Cartesian multipole field
    Component          Value
    ---------          -----
     (0,0,2)       -1.00000E-04
 Nucleus-field energy     =    -0.0203926465 hartrees
 Requested basis set is rimp2-aug-cc-pVQZ
 There are 88 shells and 388 basis functions
 A cutoff of  1.0D-14 yielded   2234 shell pairs
 There are     34742 function pairs (     58743 Cartesian)
 
 -------------------------------------------------------
 OpenMP Integral Computing Module                       
 Release: version 1.0, May 2013, Q-Chem Inc. Pittsburgh 
 -------------------------------------------------------
 Integral Job Info:
 Integral job number is                      11
 Integral operator is                         1
 short-range coefficients                     0
 long-range coefficients              100000000
 Omega coefficients                           0
 if combine SR and LR in K                    0
 Integral screening is                        0
 Integral computing path is                   2
 max size of driver memory is           3200000
 size of driver memory is               1704330
 size of scratch memory is             29435624
 max col of scratch BK array              50625
 max len of scratch array in speh3         2114
 max len of scratch index in speh4           50
 max int batch size is                      520
 min int batch size is                       52
 fixed nKL is                                22
 max L of basis functions is                  4
 order of int derivative is                   0
 number of shells is                         68
 number of basis is                         348
 number of cartesian basis is               348
 number of contracted shell pairs          2234
 number of primitive shell pairs          11054
 maxK2 (contraction) of shell pair          169
 max number of K2 of shell pair               1
 max number of CS2 of shell pair            198
 max number of PS2 of shell pair           2028
 mem total for path MDJ                  752464
 -------------------------------------------------------
 Smallest overlap matrix eigenvalue = 2.72E-05
 Guess MOs from SCF MO coefficient file
 Reading MOs from coefficient file
 Reading MOs from coefficient file
 A restricted hybrid HF-DFT SCF calculation will be
 performed using Geometric Direct Minimization
 Exchange:     0.2000 Hartree-Fock + 0.0800 Slater + 0.7200 B88
 Correlation:  0.1900 VWN1RPA + 0.8100 LYP
 Using Euler-Maclaurin-Lebedev (99,590) quadrature formula
 SCF converges when RMS gradient is below 1.0E-08
Using Q-Chem read-in guess as SCF_GUESS READ specified.

 using 8 threads for integral computing
 -------------------------------------------------------
 OpenMP Integral computing Module                
 Release: version 2.0, May 2017, Q-Chem Inc. Pleasanton 
 -------------------------------------------------------
TIMEINFO->: J/JK contribution 276.04 sec.
 -------------------------------------------------------
 OpenMP BLAS3 based DFT computing Module                
 Release: version 1.0, May 2013, Q-Chem Inc. Pittsburgh 
 -------------------------------------------------------
 ---------------------------------------
  Cycle       Energy        RMS Gradient
 ---------------------------------------
    1    -796.4522401753      3.93E-03 Normal BFGS step
TIMEINFO->: J/JK contribution 257.84 sec.
    2    -796.4522175371      7.63E-03 Normal BFGS step
TIMEINFO->: J/JK contribution 275.95 sec.
    3    -796.4522608350      1.65E-03 Normal BFGS step
TIMEINFO->: J/JK contribution 269.63 sec.
    4    -796.4522609517      1.28E-03 Normal BFGS step
TIMEINFO->: J/JK contribution 266.76 sec.
    5    -796.4522653756      1.18E-04 Normal BFGS step
TIMEINFO->: J/JK contribution 262.65 sec.
    6    -796.4522654058      1.06E-04 Normal BFGS step
TIMEINFO->: J/JK contribution 262.38 sec.
    7    -796.4522654337      1.01E-05 Normal BFGS step
TIMEINFO->: J/JK contribution 257.62 sec.
    8    -796.4522654340      2.84E-06 Normal BFGS step
TIMEINFO->: J/JK contribution 256.59 sec.
    9    -796.4522654340      2.79E-07 Normal BFGS step
TIMEINFO->: J/JK contribution 252.32 sec.
   GDM::WARNING energy changes are now smaller than effective accuracy.
   GDM::        calculation will continue, but THRESH should be increased
   GDM::        or SCF_CONVERGENCE decreased.
   GDM::        effective_thresh =   8.643169235877934E-010
   10    -796.4522654340      1.04E-07 Normal BFGS step
TIMEINFO->: J/JK contribution 240.73 sec.
   GDM::WARNING energy changes are now smaller than effective accuracy.
   GDM::        calculation will continue, but THRESH should be increased
   GDM::        or SCF_CONVERGENCE decreased.
   GDM::        effective_thresh =   8.643169235877934E-010
   11    -796.4522654340      6.03E-09 Convergence criterion met
 ---------------------------------------
 B3LYP orbitals are now ready for the XYGJ-OS calculation.
 XYGJ-OS energy = Exch (0.7731 HF  + 0.2269 Slater) + 
                  Corr (0.2754 LYP + 0.2309 VWN1RPA + 0.4364 OS-MP2)
 SCF time:  CPU 3014.69 s  wall 384.78 s
 SCF   energy in the final basis set = -795.27782814
 Total energy in the final basis set = -795.27782814
 Entering Scaled Opposite Spin MP2
 NBasAux in rimp2.F =          388

 OS-MP2 job begins now...

 SOS scaling factor =  0.4
 Form (P|Q)**(-1/2)...
 
 Form (ia|P)...
 Form BiaQ = (ia|P)*(P|Q)**(-1/2)...
 Form (ia|P)...
 Form BiaQ = (ia|P)*(P|Q)**(-1/2)...
 Laplace quadrature loop begins
 Laplace point 1: correlation energy     =        -0.3962523423
 Laplace point 2: correlation energy     =        -0.2332230086
 Laplace point 3: correlation energy     =        -0.1383402523
 Laplace point 4: correlation energy     =        -0.1213453288
 Laplace point 5: correlation energy     =        -0.0572224872
 Laplace point 6: correlation energy     =        -0.0085380779
 Laplace point 7: correlation energy     =        -0.0001961420
 
 singles contribution not yet available for XYGJ-OS 
 Total OS-MP2 correlation energy         =        -0.9551176391

 Total XYGJ-OS energy                    =      -795.6967808965
 
 ------------------------------------------------------------------------------
                     SOSMP2        : Timing summary (seconds)
 ------------------------------------------------------------------------------
     job step          cpu (% of tot)      sys (% of tot)     wall (% of tot)
 ------------------------------------------------------------------------------
  Form inv (P|Q)    0.7763E+00 ( 1.2)   0.5000E-05 ( 1.6)   0.1242E+00 ( 1.3)
  Form (ia|P)       0.5967E+02 (89.3)   0.2640E-03 (86.8)   0.7498E+01 (76.7)
  Form  BiaQ        0.3006E+01 ( 4.5)   0.1900E-04 ( 6.2)   0.3776E+00 ( 3.9)
  LP orbitals       0.5608E+00 ( 0.8)   0.9000E-05 ( 3.0)   0.3094E+00 ( 3.2)
  Form  X(PQ)       0.2631E+01 ( 3.9)   0.7000E-05 ( 2.3)   0.1318E+01 (13.5)
  Increment EMP2    0.7481E-01 ( 0.1)   0.0000E+00 ( 0.0)   0.7522E-01 ( 0.8)
 ------------------------------------------------------------------------------
   Grand Totals     0.6681E+02          0.3040E-03          0.9781E+01
 ------------------------------------------------------------------------------
 
 --------------------------------------------------------------
 
                    Orbital Energies (a.u.)
 --------------------------------------------------------------
 
 Alpha MOs
 -- Occupied --
-88.906 -88.906  -7.986  -7.986  -5.946  -5.945  -5.947  -5.947
 -5.947  -5.947  -0.844  -0.634  -0.405  -0.381  -0.381  -0.247
 -0.247
 -- Virtual --
 -0.022   0.011   0.036   0.036   0.043   0.050   0.067   0.067
  0.088   0.088   0.129   0.139   0.139   0.165   0.181   0.181
  0.219   0.219   0.230   0.276   0.276   0.320   0.331   0.331
  0.333   0.333   0.367   0.374   0.394   0.394   0.403   0.403
  0.408   0.408   0.446   0.489   0.489   0.500   0.500   0.524
  0.524   0.571   0.655   0.655   0.663   0.663   0.702   0.756
  0.783   0.783   0.894   1.040   1.040   1.074   1.074   1.106
  1.168   1.168   1.168   1.188   1.188   1.191   1.191   1.200
  1.200   1.212   1.212   1.246   1.265   1.265   1.307   1.307
  1.345   1.345   1.371   1.371   1.376   1.376   1.441   1.441
  1.503   1.503   1.504   1.515   1.525   1.525   1.562   1.562
  1.630   1.630   1.913   1.914   1.914   1.946   2.045   2.045
  2.045   2.414   2.414   2.501   2.509   2.990   2.990   3.057
  3.057   3.070   3.070   3.082   3.189   3.234   3.234   3.245
  3.245   3.289   3.289   3.283   3.283   3.346   3.346   3.418
  3.418   3.445   3.445   3.466   3.466   3.493   3.532   3.532
  3.538   3.538   3.653   3.653   3.693   3.693   3.748   3.748
  3.900   3.912   4.017   4.017   4.471   4.471   4.747   4.747
  4.812   5.280   5.280   5.765   6.051   7.901   8.179   9.494
  9.494   9.571   9.571   9.599   9.599   9.952   9.952  10.043
 10.689  15.425  15.425  15.793  15.793  16.123  16.316  18.000
 18.000  18.009  18.009  18.014  18.015  18.015  18.040  18.040
 18.064  18.064  18.148  18.148  18.405  27.379  27.727  30.909
 30.909  30.961  30.961  30.984  30.984  31.216  31.216  31.255
 31.729  44.950  44.950  45.270  45.270  45.562  45.723  54.666
 54.666  54.666  54.666  54.668  54.668  54.669  54.669  54.669
 54.669  54.670  54.669  54.669  54.670  54.670  54.673  54.673
 54.673  64.768  64.768  64.775  64.775  64.777  64.776  64.776
 64.793  64.793  64.804  64.804  64.841  64.841  64.943  80.944
 81.386  92.366  92.366  92.404  92.404  92.421  92.421  92.591
 92.591  92.601  92.952 144.179 144.179 144.392 144.392 144.601
144.686 383.514 385.423
 
 Beta MOs
 -- Occupied --
-88.900 -88.900  -7.980  -7.980  -5.943  -5.942  -5.936  -5.936
 -5.935  -5.935  -0.816  -0.582  -0.381  -0.335  -0.335
 -- Virtual --
 -0.142  -0.142  -0.009   0.014   0.038   0.038   0.049   0.052
  0.070   0.070   0.099   0.099   0.133   0.153   0.153   0.170
  0.193   0.193   0.224   0.224   0.233   0.282   0.282   0.325
  0.351   0.351   0.350   0.350   0.375   0.380   0.404   0.404
  0.409   0.409   0.440   0.440   0.454   0.505   0.505   0.508
  0.508   0.533   0.533   0.580   0.660   0.660   0.672   0.672
  0.711   0.768   0.797   0.797   0.902   1.049   1.049   1.098
  1.098   1.112   1.183   1.194   1.194   1.199   1.199   1.214
  1.214   1.218   1.218   1.226   1.226   1.253   1.292   1.292
  1.332   1.332   1.377   1.377   1.386   1.386   1.395   1.395
  1.461   1.461   1.515   1.515   1.516   1.526   1.541   1.541
  1.575   1.575   1.646   1.646   1.926   1.926   1.926   1.968
  2.060   2.063   2.063   2.433   2.433   2.510   2.527   3.011
  3.011   3.074   3.074   3.093   3.093   3.096   3.201   3.253
  3.253   3.255   3.255   3.310   3.310   3.324   3.324   3.387
  3.387   3.446   3.446   3.474   3.474   3.507   3.507   3.511
  3.559   3.559   3.580   3.580   3.671   3.671   3.724   3.724
  3.771   3.771   3.919   3.925   4.040   4.040   4.486   4.486
  4.769   4.769   4.819   5.301   5.301   5.774   6.057   7.917
  8.197   9.512   9.512   9.589   9.589   9.609   9.609   9.964
  9.964  10.050  10.696  15.442  15.442  15.809  15.809  16.129
 16.322  18.003  18.003  18.011  18.011  18.015  18.018  18.018
 18.041  18.041  18.067  18.067  18.150  18.150  18.407  27.386
 27.735  30.921  30.921  30.973  30.973  30.991  30.991  31.224
 31.224  31.261  31.735  44.961  44.961  45.281  45.281  45.566
 45.727  54.668  54.668  54.669  54.669  54.671  54.671  54.672
 54.672  54.673  54.673  54.671  54.673  54.673  54.673  54.673
 54.675  54.675  54.675  64.779  64.779  64.782  64.782  64.782
 64.787  64.787  64.799  64.799  64.812  64.812  64.847  64.847
 64.948  80.951  81.394  92.379  92.379  92.417  92.417  92.429
 92.429  92.599  92.599  92.607  92.958 144.187 144.187 144.400
144.400 144.604 144.688 383.518 385.427
 --------------------------------------------------------------
 
          Ground-State Mulliken Net Atomic Charges

     Atom                 Charge (a.u.)
  ----------------------------------------
      1 S                    -0.003527
      2 S                     0.003527
  ----------------------------------------
  Sum of atomic charges =    -0.000000

 -----------------------------------------------------------------
                    Cartesian Multipole Moments
 -----------------------------------------------------------------
    Charge (ESU x 10^10)
                -0.0000
    Dipole Moment (Debye)
         X       0.0000      Y      -0.0000      Z       0.0538
       Tot       0.0538
    Quadrupole Moments (Debye-Ang)
        XX     -25.9436     XY       0.0000     YY     -25.9436
        XZ       0.0000     YZ      -0.0000     ZZ     -24.0732
    Octopole Moments (Debye-Ang^2)
       XXX       0.0000    XXY       0.0000    XYY       0.0000
       YYY       0.0000    XXZ     -24.4553    XYZ       0.0000
       YYZ     -24.4553    XZZ       0.0000    YZZ      -0.0000
       ZZZ     -68.1479
    Hexadecapole Moments (Debye-Ang^3)
      XXXX     -35.2390   XXXY       0.0000   XXYY     -11.7463
      XYYY       0.0000   YYYY     -35.2390   XXXZ       0.0000
      XXYZ       0.0000   XYYZ       0.0000   YYYZ       0.0000
      XXZZ     -57.9193   XYZZ       0.0000   YYZZ     -57.9193
      XZZZ       0.0000   YZZZ      -0.0000   ZZZZ    -287.3856
 -----------------------------------------------------------------
Archival summary:
1\1\n0096.mhg0\SP\ROProcedureUnspecified\BasisUnspecified\2(3)\yhljason\WedOct2105:02:382020WedOct2105:02:382020\0\\#,ROProcedureUnspecified,BasisUnspecified,\\0,3\S\S,1,1.8892\\\@

 Total job time:  396.14s(wall), 3089.90s(cpu) 
 Wed Oct 21 05:02:38 2020

        *************************************************************
        *                                                           *
        *  Thank you very much for using Q-Chem.  Have a nice day.  *
        *                                                           *
        *************************************************************


