Q-Chem Developer Version!
                  Welcome to Q-Chem
     A Quantum Leap Into The Future Of Chemistry


 Q-Chem 5.1, Q-Chem, Inc., Pleasanton, CA (2018)

 Yihan Shao,  Zhengting Gan,  E. Epifanovsky,  A. T. B. Gilbert,  M. Wormit,  
 J. Kussmann,  A. W. Lange,  A. Behn,  Jia Deng,  Xintian Feng,  D. Ghosh,  
 M. Goldey,  P. R. Horn,  L. D. Jacobson,  I. Kaliman,  T. Kus,  A. Landau,  
 Jie Liu,  E. I. Proynov,  R. M. Richard,  R. P. Steele,  E. J. Sundstrom,  
 H. L. Woodcock III,  P. M. Zimmerman,  D. Zuev,  B. Albrecht,  E. Alguire,  
 S. A. Baeppler,  D. Barton,  Z. Benda,  Y. A. Bernard,  E. J. Berquist,  
 K. B. Bravaya,  H. Burton,  D. Casanova,  Chun-Min Chang,  Yunqing Chen,  
 A. Chien,  K. D. Closser,  M. P. Coons,  S. Coriani,  S. Dasgupta,  
 A. L. Dempwolff,  M. Diedenhofen,  Hainam Do,  R. G. Edgar,  Po-Tung Fang,  
 S. Faraji,  S. Fatehi,  Qingguo Feng,  K. D. Fenk,  J. Fosso-Tande,  
 Qinghui Ge,  A. Ghysels,  G. Gidofalvi,  J. Gomes,  J. Gonthier,  A. Gunina,  
 D. Hait,  M. W. D. Hanson-Heine,  P. H. P. Harbach,  A. W. Hauser,  
 J. E. Herr,  E. G. Hohenstein,  Z. C. Holden,  Kerwin Hui,  B. C. Huynh,  
 T.-C. Jagau,  Hyunjun Ji,  B. Kaduk,  K. Khistyaev,  Jaehoon Kim,  
 P. Klunzinger,  K. Koh,  D. Kosenkov,  L. Koulias,  T. Kowalczyk,  
 C. M. Krauter,  A. Kunitsa,  Ka Un Lao,  A. Laurent,  K. V. Lawler,  
 Joonho Lee,  D. Lefrancois,  S. Lehtola,  D. S. Levine,  Yi-Pei Li,  
 You-Sheng Lin,  Fenglai Liu,  E. Livshits,  A. Luenser,  P. Manohar,  
 E. Mansoor,  S. F. Manzer,  Shan-Ping Mao,  Yuezhi Mao,  N. Mardirossian,  
 A. V. Marenich,  T. Markovich,  L. A. Martinez-Martinez,  S. A. Maurer,  
 N. J. Mayhall,  S. C. McKenzie,  J.-M. Mewes,  A. F. Morrison,  
 J. W. Mullinax,  K. Nanda,  T. S. Nguyen-Beck,  R. Olivares-Amaya,  
 J. A. Parkhill,  T. M. Perrine,  F. Plasser,  P. Pokhilko,  S. Prager,  
 A. Prociuk,  E. Ramos,  D. R. Rehn,  F. Rob,  M. Schneider,  N. Sergueev,  
 S. M. Sharada,  S. Sharma,  D. W. Small,  T. Stauch,  T. Stein,  
 Yu-Chuan Su,  A. J. W. Thom,  A. Tkatchenko,  T. Tsuchimochi,  N. M. Tubman,  
 L. Vogt,  M. L. Vidal,  O. Vydrov,  M. A. Watson,  J. Wenzel,  
 M. de Wergifosse,  T. A. Wesolowski,  A. White,  J. Witte,  A. Yamada,  
 Jun Yang,  K. Yao,  S. Yeganeh,  S. R. Yost,  Zhi-Qiang You,  A. Zech,  
 Igor Ying Zhang,  Xing Zhang,  Yan Zhao,  Ying Zhu,  B. R. Brooks,  
 G. K. L. Chan,  C. J. Cramer,  M. S. Gordon,  W. J. Hehre,  A. Klamt,  
 M. W. Schmidt,  C. D. Sherrill,  D. G. Truhlar,  A. Aspuru-Guzik,  R. Baer,  
 A. T. Bell,  N. A. Besley,  Jeng-Da Chai,  A. E. DePrince, III,  
 R. A. DiStasio Jr.,  A. Dreuw,  B. D. Dunietz,  T. R. Furlani,  
 Chao-Ping Hsu,  Yousung Jung,  Jing Kong,  D. S. Lambrecht,  WanZhen Liang,  
 C. Ochsenfeld,  V. A. Rassolov,  L. V. Slipchenko,  J. E. Subotnik,  
 T. Van Voorhis,  J. M. Herbert,  A. I. Krylov,  P. M. W. Gill,  M. Head-Gordon

 Contributors to earlier versions of Q-Chem not listed above: 
 R. D. Adamson,  B. Austin,  J. Baker,  G. J. O. Beran,  K. Brandhorst,  
 S. T. Brown,  E. F. C. Byrd,  A. K. Chakraborty,  C.-L. Cheng,  
 Siu Hung Chien,  D. M. Chipman,  D. L. Crittenden,  H. Dachsel,  
 R. J. Doerksen,  A. D. Dutoi,  L. Fusti-Molnar,  W. A. Goddard III,  
 A. Golubeva-Zadorozhnaya,  S. R. Gwaltney,  G. Hawkins,  A. Heyden,  
 S. Hirata,  G. Kedziora,  F. J. Keil,  C. Kelley,  Jihan Kim,  R. A. King,  
 R. Z. Khaliullin,  P. P. Korambath,  W. Kurlancheek,  A. M. Lee,  M. S. Lee,  
 S. V. Levchenko,  Ching Yeh Lin,  D. Liotard,  R. C. Lochan,  I. Lotan,  
 P. E. Maslen,  N. Nair,  D. P. O'Neill,  D. Neuhauser,  E. Neuscamman,  
 C. M. Oana,  R. Olson,  B. Peters,  R. Peverati,  P. A. Pieniazek,  
 Y. M. Rhee,  J. Ritchie,  M. A. Rohrdanz,  E. Rosta,  N. J. Russ,  
 H. F. Schaefer III,  N. E. Schultz,  N. Shenvi,  A. C. Simmonett,  A. Sodt,  
 D. Stuck,  K. S. Thanthiriwatte,  V. Vanovschi,  Tao Wang,  A. Warshel,  
 C. F. Williams,  Q. Wu,  X. Xu,  W. Zhang

 Please cite Q-Chem as follows:
 Y. Shao et al., Mol. Phys. 113, 184-215 (2015)
 DOI: 10.1080/00268976.2014.952696

 Q-Chem 5.1.1 for Intel X86 EM64T Linux

 Parts of Q-Chem use Armadillo 8.300.2 (Tropical Shenanigans).
 http://arma.sourceforge.net/

 Q-Chem begins on Wed Oct 21 03:29:44 2020  

Host: n0086.mhg0
0

     Scratch files written to /local/scratch/users/yhljason/SO-trip_XYGJOS_aug-cc-pcV5Z.inp20201021032941//
Input Ideriv = 1
Curr. Ideriv = -1
Max.  Ideriv = 1

Checking the input file for inconsistencies... 	...done.

--------------------------------------------------------------
User input:
--------------------------------------------------------------
$molecule
0 3
S1      0.0000  0.0000  0.0000
O2      0.0000  0.0000  1.4811
$end

$rem
jobtype sp
exchange XYGJOS
xc_grid 000099000590
basis aug-cc-pcV5Z
aux_basis rimp2-aug-cc-pVQZ
max_scf_cycles 200
thresh 14
scf_convergence 8
scf_algorithm gdm
symmetry false
sym_ignore true
unrestricted false
gen_scfman false
internal_stability_iter 15
internal_stability_davidson_iter 200
mem_total 128000
cc_memory 96000
cc_backend xm
mem_static 1500
n_frozen_core 1000
$end



--------------------------------------------------------------
 ----------------------------------------------------------------
             Standard Nuclear Orientation (Angstroms)
    I     Atom           X                Y                Z
 ----------------------------------------------------------------
    1      S       0.0000000000     0.0000000000     0.0000000000
    2      O       0.0000000000     0.0000000000     1.4811000000
 ----------------------------------------------------------------
 Nuclear Repulsion Energy =    45.7326871801 hartrees
 There are       13 alpha and       11 beta electrons
 Requested basis set is aug-cc-pCV5Z
 There are 88 shells and 398 basis functions

 Total QAlloc Memory Limit 128000 MB
 Mega-Array Size      1467 MB
 MEM_STATIC part      1500 MB

                       Distance Matrix (Angstroms)
             S (  1)
   O (  2)  1.481100
 
 Requested basis set is rimp2-aug-cc-pVQZ
 There are 80 shells and 362 basis functions
 A cutoff of  1.0D-14 yielded   3641 shell pairs
 There are     76293 function pairs (    151415 Cartesian)
 
 -------------------------------------------------------
 OpenMP Integral Computing Module                       
 Release: version 1.0, May 2013, Q-Chem Inc. Pittsburgh 
 -------------------------------------------------------
 Integral Job Info:
 Integral job number is                      11
 Integral operator is                         1
 short-range coefficients                     0
 long-range coefficients              100000000
 Omega coefficients                           0
 if combine SR and LR in K                    0
 Integral screening is                        0
 Integral computing path is                   2
 max size of driver memory is           6400000
 size of driver memory is               5498286
 size of scratch memory is             29792225
 max col of scratch BK array             194481
 max len of scratch array in speh3         5572
 max len of scratch index in speh4           72
 max int batch size is                      520
 min int batch size is                       52
 fixed nKL is                                25
 max L of basis functions is                  5
 order of int derivative is                   0
 number of shells is                         88
 number of basis is                         558
 number of cartesian basis is               558
 number of contracted shell pairs          3641
 number of primitive shell pairs           7303
 maxK2 (contraction) of shell pair          121
 max number of K2 of shell pair               1
 max number of CS2 of shell pair            339
 max number of PS2 of shell pair            363
 mem total for path MDJ                 1108732
 -------------------------------------------------------
 Smallest overlap matrix eigenvalue = 1.80E-05

 Scale SEOQF with 1.000000e-01/1.000000e-01/1.000000e-01

 Standard Electronic Orientation quadrupole field applied
 Nucleus-field energy     =    -0.0000000019 hartrees
 Constructing guess Fock matrix from core Hamiltonian
 Applying Wolfsberg-Helmholtz approximation
 A restricted hybrid HF-DFT SCF calculation will be
 performed using Geometric Direct Minimization
 Exchange:     0.2000 Hartree-Fock + 0.0800 Slater + 0.7200 B88
 Correlation:  0.1900 VWN1RPA + 0.8100 LYP
 Using Euler-Maclaurin-Lebedev (99,590) quadrature formula
 SCF converges when RMS gradient is below 1.0E-08
 using 8 threads for integral computing
 -------------------------------------------------------
 OpenMP Integral computing Module                
 Release: version 2.0, May 2017, Q-Chem Inc. Pleasanton 
 -------------------------------------------------------
 LTot/LBra/LKet=          19           9          10

 Q-Chem warning:

 in GenH1, ket side, handled with new code

 LTot/LBra/LKet=          19           9          10

 Q-Chem warning:

 in GenH1, ket side, handled with new code

 LTot/LBra/LKet=          19           9          10

 Q-Chem warning:

 in GenH1, ket side, handled with new code

 LTot/LBra/LBra=          20          10          10

 Q-Chem warning:

 in GenH1, bra side, handled with new code

TIMEINFO->: J/JK contribution 2918.22 sec.
 -------------------------------------------------------
 OpenMP BLAS3 based DFT computing Module                
 Release: version 1.0, May 2013, Q-Chem Inc. Pittsburgh 
 -------------------------------------------------------
 ---------------------------------------
  Cycle       Energy        RMS Gradient
 ---------------------------------------
    1    8705.3360366895      6.82E+01 Descent step
TIMEINFO->: J/JK contribution 2901.77 sec.
    2    8660.2300213740      1.05E+04 Line search: understep
TIMEINFO->: J/JK contribution 2885.63 sec.
    3    8254.0527473777      8.41E+01 Descent step
TIMEINFO->: J/JK contribution 2870.79 sec.
    4    8202.4568904181      7.92E+03 Line search: understep
TIMEINFO->: J/JK contribution 2896.37 sec.
    5    7747.5127143639      3.90E+01 Descent step
TIMEINFO->: J/JK contribution 2866.73 sec.
    6    7717.3978418168      3.01E+03 Line search: understep
TIMEINFO->: J/JK contribution 2915.24 sec.
    7    7449.8375253226      3.59E+03 Line search: understep
TIMEINFO->: J/JK contribution 2893.33 sec.
    8    5566.7367287292      3.54E+01 Descent step
TIMEINFO->: J/JK contribution 2878.54 sec.
    9    5548.4248967821      1.17E+05 Line search: understep
TIMEINFO->: J/JK contribution 2904.22 sec.
   10    5384.5786241718      1.12E+05 Line search: understep
TIMEINFO->: J/JK contribution 2908.40 sec.
   11    4484.6506241119      1.74E+01 Descent step
TIMEINFO->: J/JK contribution 2891.83 sec.
   12    4468.5470053164      5.08E+04 Line search: understep
TIMEINFO->: J/JK contribution 2889.66 sec.
   GDM::BFGS:   rebuilding Hinv to be positive definite
   13    4321.1060923377      3.60E+01 Descent step
TIMEINFO->: J/JK contribution 2899.81 sec.
   14    4298.7742417355      1.18E+05 Line search: understep
TIMEINFO->: J/JK contribution 2897.97 sec.
   15    4100.0277351002      1.58E+01 Descent step
TIMEINFO->: J/JK contribution 2909.76 sec.
   16    4083.4309898928      1.42E+05 Line search: understep
TIMEINFO->: J/JK contribution 2891.09 sec.
   17    3932.6100517103      1.27E+05 Line search: understep
TIMEINFO->: J/JK contribution 2905.34 sec.
   18    2704.7879786567      4.82E+01 Descent step
TIMEINFO->: J/JK contribution 2899.80 sec.
   19    2673.9761410367      2.57E+03 Line search: understep
TIMEINFO->: J/JK contribution 2898.93 sec.
   20    2401.2137995825      3.83E+01 Descent step
TIMEINFO->: J/JK contribution 2890.83 sec.
   21    2370.6676980963      1.97E+03 Line search: understep
TIMEINFO->: J/JK contribution 2903.32 sec.
   22    2102.7712254729      4.42E+01 Descent step
TIMEINFO->: J/JK contribution 2905.38 sec.
   23    2072.4634901964      2.18E+03 Line search: understep
TIMEINFO->: J/JK contribution 2889.11 sec.
   24    1891.4836180727      6.62E+01 Descent step
TIMEINFO->: J/JK contribution 2900.04 sec.
   25    1856.2113746487      1.75E+01 Descent step
TIMEINFO->: J/JK contribution 2900.48 sec.
   26    1837.1544220634      4.17E+02 Line search: understep
TIMEINFO->: J/JK contribution 2911.75 sec.
   27    1671.1953667004      1.33E+01 Descent step
TIMEINFO->: J/JK contribution 2721.37 sec.
   28    1655.9408559982      2.42E+02 Line search: understep
TIMEINFO->: J/JK contribution 2607.68 sec.
   29    1520.5183652438      1.27E+01 Descent step
TIMEINFO->: J/JK contribution 2599.63 sec.
   30    1505.7088045203      2.20E+02 Line search: understep
TIMEINFO->: J/JK contribution 2607.90 sec.
   31    1374.9351858884      1.30E+01 Descent step
TIMEINFO->: J/JK contribution 2600.42 sec.
   32    1361.2518669737      1.92E+02 Line search: understep
TIMEINFO->: J/JK contribution 2603.12 sec.
   33    1243.5171890988      1.18E+01 Descent step
TIMEINFO->: J/JK contribution 2603.64 sec.
   34    1230.9353920709      1.79E+02 Line search: understep
TIMEINFO->: J/JK contribution 2608.87 sec.
   35    1123.6729304625      1.21E+01 Descent step
TIMEINFO->: J/JK contribution 2597.85 sec.
   36    1112.5243423269      1.79E+02 Line search: understep
TIMEINFO->: J/JK contribution 2611.76 sec.
   37    1014.3697692168      1.57E+01 Descent step
TIMEINFO->: J/JK contribution 2596.91 sec.
   38    1002.3584030815      1.73E+02 Line search: understep
TIMEINFO->: J/JK contribution 2614.85 sec.
   39     897.6496929809      1.17E+01 Descent step
TIMEINFO->: J/JK contribution 2608.47 sec.
   40     886.9411977931      7.44E+02 Line search: understep
TIMEINFO->: J/JK contribution 2621.69 sec.
   41     793.6585285539      8.30E+00 Descent step
TIMEINFO->: J/JK contribution 2603.93 sec.
   42     783.3180046085      6.69E+02 Line search: understep
TIMEINFO->: J/JK contribution 2603.87 sec.
   43     698.2946570741      4.09E+01 Descent step
TIMEINFO->: J/JK contribution 2604.04 sec.
   44     675.3676744621      1.52E+01 Descent step
TIMEINFO->: J/JK contribution 2609.89 sec.
   45     661.5601454307      5.89E+02 Line search: understep
TIMEINFO->: J/JK contribution 2618.61 sec.
   46     557.1081127235      7.88E+00 Descent step
TIMEINFO->: J/JK contribution 2593.13 sec.
   47     548.2100258231      5.50E+02 Line search: understep
TIMEINFO->: J/JK contribution 2608.13 sec.
   48     474.2497886443      8.70E+00 Descent step
TIMEINFO->: J/JK contribution 2609.31 sec.
   49     466.3188000997      1.27E+02 Line search: understep
TIMEINFO->: J/JK contribution 2607.88 sec.
   50     394.5353293567      1.83E+01 Descent step
TIMEINFO->: J/JK contribution 2602.49 sec.
   51     380.2833451243      1.86E+01 Descent step
TIMEINFO->: J/JK contribution 2589.45 sec.
   52     366.4759573239      3.23E+02 Line search: understep
TIMEINFO->: J/JK contribution 2610.35 sec.
   53     256.4820286913      2.42E+01 Descent step
TIMEINFO->: J/JK contribution 2605.77 sec.
   54     242.7743868529      9.44E+01 Line search: understep
TIMEINFO->: J/JK contribution 2608.39 sec.
   55     147.5121995591      5.80E+00 Descent step
TIMEINFO->: J/JK contribution 2601.32 sec.
   56     141.7209900461      3.69E+00 Descent step
TIMEINFO->: J/JK contribution 2612.21 sec.
   57     136.9315345294      8.42E+01 Line search: understep
TIMEINFO->: J/JK contribution 2603.05 sec.
   58     100.5873121277      2.73E+00 Descent step
TIMEINFO->: J/JK contribution 2592.68 sec.
   59      96.6113001413      1.70E+02 Line search: understep
TIMEINFO->: J/JK contribution 2600.17 sec.
   60      63.4066509112      8.17E+00 Descent step
TIMEINFO->: J/JK contribution 2610.61 sec.
   61      57.8831614232      4.27E+00 Descent step
TIMEINFO->: J/JK contribution 2611.90 sec.
   62      53.0953081143      1.95E+02 Line search: understep
TIMEINFO->: J/JK contribution 2613.22 sec.
   63      30.3506334805      6.97E+00 Descent step
TIMEINFO->: J/JK contribution 2601.82 sec.
   64      25.6677119697      3.91E+00 Descent step
TIMEINFO->: J/JK contribution 2603.50 sec.
   65      21.3477196154      2.92E+01 Line search: understep
TIMEINFO->: J/JK contribution 2616.88 sec.
   66     -12.0184521638      6.35E+00 Descent step
TIMEINFO->: J/JK contribution 2593.42 sec.
   67     -17.2308470569      4.80E+00 Descent step
TIMEINFO->: J/JK contribution 2600.08 sec.
   68     -21.4549840586      9.27E+01 Line search: understep
TIMEINFO->: J/JK contribution 2602.29 sec.
   69     -49.5795000478      2.20E+00 Descent step
TIMEINFO->: J/JK contribution 2601.63 sec.
   70     -52.8458120465      5.64E+02 Line search: understep
TIMEINFO->: J/JK contribution 2602.53 sec.
   71     -73.5980525615      2.05E+00 Descent step
TIMEINFO->: J/JK contribution 2596.26 sec.
   72     -76.2944105913      8.01E+02 Line search: understep
TIMEINFO->: J/JK contribution 2602.90 sec.
   73     -92.3065961820      2.66E+00 Descent step
TIMEINFO->: J/JK contribution 2598.64 sec.
   74     -95.2214987193      2.24E+02 Line search: understep
TIMEINFO->: J/JK contribution 2600.84 sec.
   75    -114.3758103872      6.61E+00 Descent step
TIMEINFO->: J/JK contribution 2596.01 sec.
   76    -118.4398139120      5.60E+00 Descent step
TIMEINFO->: J/JK contribution 2595.36 sec.
   77    -121.6465933084      1.03E+02 Line search: understep
TIMEINFO->: J/JK contribution 2601.95 sec.
   78    -146.5745456382      5.32E+00 Descent step
TIMEINFO->: J/JK contribution 2597.60 sec.
   79    -149.5632324035      4.64E+00 Descent step
TIMEINFO->: J/JK contribution 2589.65 sec.
   80    -152.4241824152      4.14E+00 Descent step
TIMEINFO->: J/JK contribution 2591.36 sec.
   81    -155.2331333440      6.40E+02 Line search: understep
TIMEINFO->: J/JK contribution 2605.51 sec.
   82    -173.6674741736      2.51E+00 Descent step
TIMEINFO->: J/JK contribution 2592.64 sec.
   GDM::BFGS:   rebuilding Hinv to be positive definite
   83    -175.8825841912      2.83E+00 Descent step
TIMEINFO->: J/JK contribution 2583.85 sec.
   84    -178.2717295009      3.48E+00 Descent step
TIMEINFO->: J/JK contribution 2581.07 sec.
   85    -180.8853835139      4.39E+00 Descent step
TIMEINFO->: J/JK contribution 2595.55 sec.
   86    -183.7549838831      2.70E+00 Descent step
TIMEINFO->: J/JK contribution 2590.33 sec.
   87    -186.1433825022      3.02E+00 Descent step
TIMEINFO->: J/JK contribution 2587.28 sec.
   88    -188.4041313118      2.40E+00 Descent step
TIMEINFO->: J/JK contribution 2589.28 sec.
   89    -190.5163838700      1.88E+00 Descent step
TIMEINFO->: J/JK contribution 2577.40 sec.
   90    -192.5338627730      3.65E+02 Line search: understep
TIMEINFO->: J/JK contribution 2598.23 sec.
   91    -205.8487310234      2.57E+00 Descent step
TIMEINFO->: J/JK contribution 2571.59 sec.
   92    -207.9317487376      5.76E+02 Line search: understep
TIMEINFO->: J/JK contribution 2591.82 sec.
   93    -226.8743616281      1.93E+01 Descent step
TIMEINFO->: J/JK contribution 2572.00 sec.
   94    -233.1406823583      4.20E+00 Descent step
TIMEINFO->: J/JK contribution 2580.78 sec.
   95    -235.8164430971      8.53E+02 Line search: understep
TIMEINFO->: J/JK contribution 2587.73 sec.
   96    -258.5674402499      6.57E+00 Descent step
TIMEINFO->: J/JK contribution 2569.39 sec.
   97    -261.9334439841      1.25E+03 Line search: understep
TIMEINFO->: J/JK contribution 2591.30 sec.
   98    -280.2318210168      3.25E+00 Descent step
TIMEINFO->: J/JK contribution 2561.87 sec.
   GDM::BFGS:   rebuilding Hinv to be positive definite
   99    -281.9174418653      3.48E+00 Descent step
TIMEINFO->: J/JK contribution 2565.39 sec.
  100    -283.6418906311      3.71E+00 Descent step
TIMEINFO->: J/JK contribution 2550.60 sec.
  101    -285.4049508029      2.40E+03 Line search: understep
TIMEINFO->: J/JK contribution 2580.35 sec.
  102    -301.3925905378      6.33E+00 Descent step
TIMEINFO->: J/JK contribution 2539.81 sec.
  103    -304.0043879644      7.25E+03 Line search: understep
TIMEINFO->: J/JK contribution 2559.33 sec.
   GDM::BFGS:   rebuilding Hinv to be positive definite
  104    -330.9763822206      1.34E+01 Descent step
TIMEINFO->: J/JK contribution 2532.02 sec.
  105    -335.5479044033      1.07E+04 Line search: understep
TIMEINFO->: J/JK contribution 2567.19 sec.
   GDM::BFGS:   rebuilding Hinv to be positive definite
  106    -378.4356235858      2.21E+01 Descent step
TIMEINFO->: J/JK contribution 2529.24 sec.
  107    -385.7310733608      1.01E+04 Line search: understep
TIMEINFO->: J/JK contribution 2550.55 sec.
  108    -437.1164789680      4.77E+00 Descent step
TIMEINFO->: J/JK contribution 2534.52 sec.
  109    -439.1400703452      4.46E+03 Line search: understep
TIMEINFO->: J/JK contribution 2562.59 sec.
  110    -450.7269738485      2.24E+00 Descent step
TIMEINFO->: J/JK contribution 2546.16 sec.
  111    -451.8429499463      2.03E+00 Descent step
TIMEINFO->: J/JK contribution 2537.96 sec.
  112    -452.7802162242      9.96E+02 Line search: understep
TIMEINFO->: J/JK contribution 2577.99 sec.
  113    -455.9372045643      3.25E+00 Descent step
TIMEINFO->: J/JK contribution 2555.46 sec.
  114    -457.1221314989      1.48E+00 Descent step
TIMEINFO->: J/JK contribution 2557.17 sec.
  115    -457.8620323895      1.25E+00 Descent step
TIMEINFO->: J/JK contribution 2555.86 sec.
  116    -458.4039004445      1.01E+00 Descent step
TIMEINFO->: J/JK contribution 2554.06 sec.
  117    -458.7902755470      7.58E-01 Descent step
TIMEINFO->: J/JK contribution 2551.23 sec.
  118    -459.0544319891      4.93E-01 Descent step
TIMEINFO->: J/JK contribution 2537.92 sec.
  119    -459.2220810000      2.38E-01 Descent step
TIMEINFO->: J/JK contribution 2545.10 sec.
  120    -459.3530763719      3.13E-01 Descent step
TIMEINFO->: J/JK contribution 2566.35 sec.
   GDM::BFGS:   rebuilding Hinv to be positive definite
  121    -459.5442871146      5.04E-01 Descent step
TIMEINFO->: J/JK contribution 2549.96 sec.
   GDM::BFGS:   rebuilding Hinv to be positive definite
  122    -459.8325006464      8.13E-01 Descent step
TIMEINFO->: J/JK contribution 2551.03 sec.
   GDM::BFGS:   rebuilding Hinv to be positive definite
  123    -460.2655393951      2.00E+00 Descent step
TIMEINFO->: J/JK contribution 2552.44 sec.
  124    -461.1029166512      4.09E-01 Descent step
TIMEINFO->: J/JK contribution 2555.62 sec.
  125    -461.2550452403      1.52E-01 Dog-leg BFGS step
TIMEINFO->: J/JK contribution 2569.20 sec.
  126    -461.2877423251      1.65E-01 Normal BFGS step
TIMEINFO->: J/JK contribution 2553.01 sec.
  127    -461.3025438740      4.30E-02 Normal BFGS step
TIMEINFO->: J/JK contribution 2551.85 sec.
  128    -461.2838430521      9.24E+01 Line search: overstep
TIMEINFO->: J/JK contribution 2552.72 sec.
  129    -461.3036725733      4.34E-02 Normal BFGS step
TIMEINFO->: J/JK contribution 2552.12 sec.
  130    -461.3051776633      2.02E-02 Normal BFGS step
TIMEINFO->: J/JK contribution 2546.44 sec.
  131    -461.3061712884      1.33E-02 Normal BFGS step
TIMEINFO->: J/JK contribution 2541.02 sec.
  132    -461.3066268359      1.22E+00 Line search: understep
TIMEINFO->: J/JK contribution 2565.10 sec.
   GDM::BFGS:   rebuilding Hinv to be positive definite
  133    -461.3101626993      1.77E-01 Dog-leg BFGS step
TIMEINFO->: J/JK contribution 2572.84 sec.
   GDM::BFGS:   rebuilding Hinv to be positive definite
  134    -461.4273656385      3.98E-01 Descent step
TIMEINFO->: J/JK contribution 2576.04 sec.
  135    -461.6320793579      4.12E-01 Descent step
TIMEINFO->: J/JK contribution 2575.37 sec.
   GDM::BFGS:   rebuilding Hinv to be positive definite
  136    -461.8914217294      4.97E-01 Descent step
TIMEINFO->: J/JK contribution 2567.64 sec.
   GDM::BFGS:   rebuilding Hinv to be positive definite
  137    -462.1533993850      6.89E-01 Descent step
TIMEINFO->: J/JK contribution 2554.51 sec.
   GDM::BFGS:   rebuilding Hinv to be positive definite
  138    -462.5174861732      1.28E+00 Descent step
TIMEINFO->: J/JK contribution 2557.98 sec.
  139    -463.0321514521      8.89E-01 Descent step
TIMEINFO->: J/JK contribution 2554.41 sec.
   GDM::BFGS:   rebuilding Hinv to be positive definite
  140    -463.5017167438      1.47E+00 Descent step
TIMEINFO->: J/JK contribution 2545.29 sec.
   GDM::BFGS:   rebuilding Hinv to be positive definite
  141    -464.1591132603      2.70E+00 Descent step
TIMEINFO->: J/JK contribution 2548.42 sec.
   GDM::BFGS:   rebuilding Hinv to be positive definite
  142    -465.2153703176      5.05E+00 Descent step
TIMEINFO->: J/JK contribution 2546.40 sec.
  143    -466.8851065458      1.75E+00 Descent step
TIMEINFO->: J/JK contribution 2542.77 sec.
  144    -467.6128752870      1.44E+00 Descent step
TIMEINFO->: J/JK contribution 2549.42 sec.
  145    -468.2424637562      1.21E+00 Descent step
TIMEINFO->: J/JK contribution 2554.00 sec.
  146    -468.9132830743      1.07E+00 Descent step
TIMEINFO->: J/JK contribution 2544.46 sec.
  147    -469.5062634569      1.45E+00 Descent step
TIMEINFO->: J/JK contribution 2550.49 sec.
  148    -470.1402949602      5.13E-01 Descent step
TIMEINFO->: J/JK contribution 2547.75 sec.
  149    -470.4857157248      6.19E-01 Descent step
TIMEINFO->: J/JK contribution 2551.19 sec.
  150    -470.8617536760      5.88E-01 Descent step
TIMEINFO->: J/JK contribution 2564.60 sec.
  151    -471.2622908497      1.06E+00 Descent step
TIMEINFO->: J/JK contribution 2552.95 sec.
  152    -471.6702402267      5.98E-01 Descent step
TIMEINFO->: J/JK contribution 2548.26 sec.
  153    -472.0765663264      7.27E-01 Descent step
TIMEINFO->: J/JK contribution 2546.89 sec.
  154    -472.3959659794      5.88E-01 Descent step
TIMEINFO->: J/JK contribution 2543.32 sec.
  155    -472.6899672159      3.21E-01 Descent step
TIMEINFO->: J/JK contribution 2537.74 sec.
  156    -472.9241901096      6.10E-01 Descent step
TIMEINFO->: J/JK contribution 2548.85 sec.
  157    -473.1337994974      4.95E-01 Descent step
TIMEINFO->: J/JK contribution 2550.97 sec.
  158    -473.3141832961      6.09E-01 Descent step
TIMEINFO->: J/JK contribution 2547.09 sec.
  159    -473.4081473803      1.35E-01 Descent step
TIMEINFO->: J/JK contribution 2542.97 sec.
  160    -473.3861233628      1.05E+00 Line search: overstep
TIMEINFO->: J/JK contribution 2536.78 sec.
  161    -473.4332283127      1.46E-01 Descent step
TIMEINFO->: J/JK contribution 2524.08 sec.
  162    -473.4388062200      9.74E-02 Dog-leg BFGS step
TIMEINFO->: J/JK contribution 2543.35 sec.
  163    -473.3737753248      9.45E-01 Line search: overstep
TIMEINFO->: J/JK contribution 2537.77 sec.
  164    -473.4423040197      3.74E-02 Dog-leg BFGS step
TIMEINFO->: J/JK contribution 2522.77 sec.
  165    -473.4410299255      3.75E-01 Line search: overstep
TIMEINFO->: J/JK contribution 2553.13 sec.
  166    -473.4445731159      5.59E-02 Descent step
TIMEINFO->: J/JK contribution 2507.96 sec.
  167    -473.4453380317      3.47E-02 Normal BFGS step
TIMEINFO->: J/JK contribution 2527.92 sec.
  168    -473.4432222380      1.41E-01 Line search: overstep
TIMEINFO->: J/JK contribution 2523.50 sec.
  169    -473.4456997028      2.53E-02 Dog-leg BFGS step
TIMEINFO->: J/JK contribution 2524.61 sec.
  170    -473.4421776078      3.56E-01 Line search: overstep
TIMEINFO->: J/JK contribution 2519.54 sec.
  171    -473.4463187156      1.05E-02 Dog-leg BFGS step
TIMEINFO->: J/JK contribution 2514.49 sec.
  172    -473.4462478937      4.89E-02 Line search: overstep
TIMEINFO->: J/JK contribution 2503.16 sec.
  173    -473.4464414074      7.41E-03 Dog-leg BFGS step
TIMEINFO->: J/JK contribution 2503.05 sec.
  174    -473.4464679736      9.44E-03 Normal BFGS step
TIMEINFO->: J/JK contribution 2490.11 sec.
  175    -473.4465116123      1.18E-03 Normal BFGS step
TIMEINFO->: J/JK contribution 2480.85 sec.
  176    -473.4465114415      1.04E-02 Line search: overstep
TIMEINFO->: J/JK contribution 2470.06 sec.
  177    -473.4465146723      3.84E-04 Normal BFGS step
TIMEINFO->: J/JK contribution 2461.99 sec.
  178    -473.4465153215      2.83E-04 Normal BFGS step
TIMEINFO->: J/JK contribution 2456.46 sec.
  179    -473.4465156008      1.44E-04 Normal BFGS step
TIMEINFO->: J/JK contribution 2418.57 sec.
  180    -473.4465156601      3.09E-05 Normal BFGS step
TIMEINFO->: J/JK contribution 2545.62 sec.
  181    -473.4465156646      2.27E-05 Normal BFGS step
TIMEINFO->: J/JK contribution 2372.58 sec.
  182    -473.4465156656      8.98E-06 Normal BFGS step
TIMEINFO->: J/JK contribution 2354.68 sec.
  183    -473.4465156658      1.62E-06 Normal BFGS step
TIMEINFO->: J/JK contribution 2286.15 sec.
  184    -473.4465156658      9.08E-07 Normal BFGS step
TIMEINFO->: J/JK contribution 2205.10 sec.
  185    -473.4465156659      4.08E-07 Normal BFGS step
TIMEINFO->: J/JK contribution 2162.52 sec.
  186    -473.4465156659      1.16E-07 Normal BFGS step
TIMEINFO->: J/JK contribution 2023.34 sec.
  187    -473.4465156659      2.40E-08 Normal BFGS step
TIMEINFO->: J/JK contribution 1868.58 sec.
  188    -473.4465156659      6.37E-09 Convergence criterion met
 ---------------------------------------
 B3LYP orbitals are now ready for the XYGJ-OS calculation.
 XYGJ-OS energy = Exch (0.7731 HF  + 0.2269 Slater) + 
                  Corr (0.2754 LYP + 0.2309 VWN1RPA + 0.4364 OS-MP2)
 SCF time:  CPU 492554.42 s  wall 61724.03 s
 SCF   energy in the final basis set = -472.56936626
 Total energy in the final basis set = -472.56936626
 Entering Scaled Opposite Spin MP2
 NBasAux in rimp2.F =          362

 OS-MP2 job begins now...

 SOS scaling factor =  0.4
 Form (P|Q)**(-1/2)...

 Q-Chem fatal error occurred in module libmdc/qalloc.C, line 49:

 Illegal memory length in mega_alloc


 Please submit a crash report at q-chem.com/reporter 
 
 
 
User input: 2 of 2 
 
Q-Chem Developer Version!
                  Welcome to Q-Chem
     A Quantum Leap Into The Future Of Chemistry


 Q-Chem 5.1, Q-Chem, Inc., Pleasanton, CA (2018)

 Yihan Shao,  Zhengting Gan,  E. Epifanovsky,  A. T. B. Gilbert,  M. Wormit,  
 J. Kussmann,  A. W. Lange,  A. Behn,  Jia Deng,  Xintian Feng,  D. Ghosh,  
 M. Goldey,  P. R. Horn,  L. D. Jacobson,  I. Kaliman,  T. Kus,  A. Landau,  
 Jie Liu,  E. I. Proynov,  R. M. Richard,  R. P. Steele,  E. J. Sundstrom,  
 H. L. Woodcock III,  P. M. Zimmerman,  D. Zuev,  B. Albrecht,  E. Alguire,  
 S. A. Baeppler,  D. Barton,  Z. Benda,  Y. A. Bernard,  E. J. Berquist,  
 K. B. Bravaya,  H. Burton,  D. Casanova,  Chun-Min Chang,  Yunqing Chen,  
 A. Chien,  K. D. Closser,  M. P. Coons,  S. Coriani,  S. Dasgupta,  
 A. L. Dempwolff,  M. Diedenhofen,  Hainam Do,  R. G. Edgar,  Po-Tung Fang,  
 S. Faraji,  S. Fatehi,  Qingguo Feng,  K. D. Fenk,  J. Fosso-Tande,  
 Qinghui Ge,  A. Ghysels,  G. Gidofalvi,  J. Gomes,  J. Gonthier,  A. Gunina,  
 D. Hait,  M. W. D. Hanson-Heine,  P. H. P. Harbach,  A. W. Hauser,  
 J. E. Herr,  E. G. Hohenstein,  Z. C. Holden,  Kerwin Hui,  B. C. Huynh,  
 T.-C. Jagau,  Hyunjun Ji,  B. Kaduk,  K. Khistyaev,  Jaehoon Kim,  
 P. Klunzinger,  K. Koh,  D. Kosenkov,  L. Koulias,  T. Kowalczyk,  
 C. M. Krauter,  A. Kunitsa,  Ka Un Lao,  A. Laurent,  K. V. Lawler,  
 Joonho Lee,  D. Lefrancois,  S. Lehtola,  D. S. Levine,  Yi-Pei Li,  
 You-Sheng Lin,  Fenglai Liu,  E. Livshits,  A. Luenser,  P. Manohar,  
 E. Mansoor,  S. F. Manzer,  Shan-Ping Mao,  Yuezhi Mao,  N. Mardirossian,  
 A. V. Marenich,  T. Markovich,  L. A. Martinez-Martinez,  S. A. Maurer,  
 N. J. Mayhall,  S. C. McKenzie,  J.-M. Mewes,  A. F. Morrison,  
 J. W. Mullinax,  K. Nanda,  T. S. Nguyen-Beck,  R. Olivares-Amaya,  
 J. A. Parkhill,  T. M. Perrine,  F. Plasser,  P. Pokhilko,  S. Prager,  
 A. Prociuk,  E. Ramos,  D. R. Rehn,  F. Rob,  M. Schneider,  N. Sergueev,  
 S. M. Sharada,  S. Sharma,  D. W. Small,  T. Stauch,  T. Stein,  
 Yu-Chuan Su,  A. J. W. Thom,  A. Tkatchenko,  T. Tsuchimochi,  N. M. Tubman,  
 L. Vogt,  M. L. Vidal,  O. Vydrov,  M. A. Watson,  J. Wenzel,  
 M. de Wergifosse,  T. A. Wesolowski,  A. White,  J. Witte,  A. Yamada,  
 Jun Yang,  K. Yao,  S. Yeganeh,  S. R. Yost,  Zhi-Qiang You,  A. Zech,  
 Igor Ying Zhang,  Xing Zhang,  Yan Zhao,  Ying Zhu,  B. R. Brooks,  
 G. K. L. Chan,  C. J. Cramer,  M. S. Gordon,  W. J. Hehre,  A. Klamt,  
 M. W. Schmidt,  C. D. Sherrill,  D. G. Truhlar,  A. Aspuru-Guzik,  R. Baer,  
 A. T. Bell,  N. A. Besley,  Jeng-Da Chai,  A. E. DePrince, III,  
 R. A. DiStasio Jr.,  A. Dreuw,  B. D. Dunietz,  T. R. Furlani,  
 Chao-Ping Hsu,  Yousung Jung,  Jing Kong,  D. S. Lambrecht,  WanZhen Liang,  
 C. Ochsenfeld,  V. A. Rassolov,  L. V. Slipchenko,  J. E. Subotnik,  
 T. Van Voorhis,  J. M. Herbert,  A. I. Krylov,  P. M. W. Gill,  M. Head-Gordon

 Contributors to earlier versions of Q-Chem not listed above: 
 R. D. Adamson,  B. Austin,  J. Baker,  G. J. O. Beran,  K. Brandhorst,  
 S. T. Brown,  E. F. C. Byrd,  A. K. Chakraborty,  C.-L. Cheng,  
 Siu Hung Chien,  D. M. Chipman,  D. L. Crittenden,  H. Dachsel,  
 R. J. Doerksen,  A. D. Dutoi,  L. Fusti-Molnar,  W. A. Goddard III,  
 A. Golubeva-Zadorozhnaya,  S. R. Gwaltney,  G. Hawkins,  A. Heyden,  
 S. Hirata,  G. Kedziora,  F. J. Keil,  C. Kelley,  Jihan Kim,  R. A. King,  
 R. Z. Khaliullin,  P. P. Korambath,  W. Kurlancheek,  A. M. Lee,  M. S. Lee,  
 S. V. Levchenko,  Ching Yeh Lin,  D. Liotard,  R. C. Lochan,  I. Lotan,  
 P. E. Maslen,  N. Nair,  D. P. O'Neill,  D. Neuhauser,  E. Neuscamman,  
 C. M. Oana,  R. Olson,  B. Peters,  R. Peverati,  P. A. Pieniazek,  
 Y. M. Rhee,  J. Ritchie,  M. A. Rohrdanz,  E. Rosta,  N. J. Russ,  
 H. F. Schaefer III,  N. E. Schultz,  N. Shenvi,  A. C. Simmonett,  A. Sodt,  
 D. Stuck,  K. S. Thanthiriwatte,  V. Vanovschi,  Tao Wang,  A. Warshel,  
 C. F. Williams,  Q. Wu,  X. Xu,  W. Zhang

 Please cite Q-Chem as follows:
 Y. Shao et al., Mol. Phys. 113, 184-215 (2015)
 DOI: 10.1080/00268976.2014.952696

 Q-Chem 5.1.1 for Intel X86 EM64T Linux

 Parts of Q-Chem use Armadillo 8.300.2 (Tropical Shenanigans).
 http://arma.sourceforge.net/

 Q-Chem begins on Wed Oct 21 20:38:39 2020  

Host: n0086.mhg0
0

     Scratch files written to /local/scratch/users/yhljason/SO-trip_XYGJOS_aug-cc-pcV5Z.inp20201021032941//
The previous job contains 0 fragments, simply inherited here
Input Ideriv = 1
Curr. Ideriv = -1
Max.  Ideriv = 1

Checking the input file for inconsistencies... 	...done.

--------------------------------------------------------------
User input:
--------------------------------------------------------------
$molecule
read
$end

$rem

jobtype sp
method HF
xc_grid 000099000590
basis aug-cc-pcV5Z
max_scf_cycles 0
scf_guess read
thresh 14
scf_convergence 8
mem_total 128000
cc_memory 96000
cc_backend xm
mem_static 1500
symmetry false
sym_ignore true
scf_guess read
unrestricted false
scf_algorithm gdm
n_frozen_core 0
$end


--------------------------------------------------------------
 ----------------------------------------------------------------
             Standard Nuclear Orientation (Angstroms)
    I     Atom           X                Y                Z
 ----------------------------------------------------------------
    1      S       0.0000000000     0.0000000000     0.0000000000
    2      O       0.0000000000     0.0000000000     1.4811000000
 ----------------------------------------------------------------
 Nuclear Repulsion Energy =    45.7326871801 hartrees
 There are       13 alpha and       11 beta electrons
 Requested basis set is aug-cc-pCV5Z
 There are 88 shells and 398 basis functions

 Total QAlloc Memory Limit 128000 MB
 Mega-Array Size      1467 MB
 MEM_STATIC part      1500 MB

                       Distance Matrix (Angstroms)
             S (  1)
   O (  2)  1.481100
 
 A cutoff of  1.0D-14 yielded   3641 shell pairs
 There are     76293 function pairs (    151415 Cartesian)
 
 -------------------------------------------------------
 OpenMP Integral Computing Module                       
 Release: version 1.0, May 2013, Q-Chem Inc. Pittsburgh 
 -------------------------------------------------------
 Integral Job Info:
 Integral job number is                      11
 Integral operator is                         1
 short-range coefficients                     0
 long-range coefficients              100000000
 Omega coefficients                           0
 if combine SR and LR in K                    0
 Integral screening is                        0
 Integral computing path is                   2
 max size of driver memory is           6400000
 size of driver memory is               5498286
 size of scratch memory is             29792225
 max col of scratch BK array             194481
 max len of scratch array in speh3         5572
 max len of scratch index in speh4           72
 max int batch size is                      520
 min int batch size is                       52
 fixed nKL is                                25
 max L of basis functions is                  5
 order of int derivative is                   0
 number of shells is                         88
 number of basis is                         558
 number of cartesian basis is               558
 number of contracted shell pairs          3641
 number of primitive shell pairs           7303
 maxK2 (contraction) of shell pair          121
 max number of K2 of shell pair               1
 max number of CS2 of shell pair            339
 max number of PS2 of shell pair            363
 mem total for path MDJ                 1108732
 -------------------------------------------------------
 Smallest overlap matrix eigenvalue = 1.80E-05

 Scale SEOQF with 1.000000e-01/1.000000e-01/1.000000e-01

 Standard Electronic Orientation quadrupole field applied
 Nucleus-field energy     =    -0.0000000019 hartrees
 Guess MOs from SCF MO coefficient file
 Reading MOs from coefficient file
 Reading MOs from coefficient file
 The restricted Hartree-Fock energy will be evaluated
 The orbitals will not be altered
Using Q-Chem read-in guess as SCF_GUESS READ specified.

 using 8 threads for integral computing
 -------------------------------------------------------
 OpenMP Integral computing Module                
 Release: version 2.0, May 2017, Q-Chem Inc. Pleasanton 
 -------------------------------------------------------
 LTot/LBra/LKet=          19           9          10
 LTot/LBra/LKet=          19           9          10

 Q-Chem warning:

 in GenH1, ket side, handled with new code

 LTot/LBra/LKet=          19           9          10

 Q-Chem warning:

 in GenH1, ket side, handled with new code


 Q-Chem warning:

 in GenH1, ket side, handled with new code

 LTot/LBra/LBra=          20          10          10

 Q-Chem warning:

 in GenH1, bra side, handled with new code

TIMEINFO->: J/JK contribution 2566.51 sec.
Avoiding writing the new MOs to disk !!! 
 ---------------------------------------
  Cycle       Energy        RMS Gradient
 ---------------------------------------
    1    -472.3838858738      2.70E-02 Convergence criterion met
 ---------------------------------------
 SCF time:  CPU 2569.49 s  wall 321.70 s
 SCF   energy in the final basis set = -472.38388587
 Total energy in the final basis set = -472.38388587
 
 --------------------------------------------------------------
 
                    Orbital Energies (a.u.)
 --------------------------------------------------------------
 
 Alpha MOs
 -- Occupied --
-88.952 -19.202  -8.027  -5.987  -5.990  -5.990  -1.096  -0.690
 -0.464  -0.462  -0.462  -0.267  -0.267
 -- Virtual --
 -0.024   0.004   0.032   0.032   0.054   0.091   0.094   0.094
  0.110   0.110   0.168   0.188   0.188   0.212   0.218   0.218
  0.266   0.329   0.332   0.332   0.359   0.359   0.359   0.359
  0.367   0.367   0.421   0.421   0.465   0.471   0.471   0.485
  0.485   0.492   0.532   0.608   0.608   0.752   0.827   0.863
  0.863   0.905   0.905   0.924   0.924   0.982   0.982   0.982
  0.982   1.015   1.029   1.029   1.028   1.028   1.065   1.065
  1.102   1.102   1.105   1.120   1.118   1.118   1.123   1.123
  1.187   1.187   1.236   1.319   1.319   1.414   1.526   1.526
  1.584   1.593   1.593   1.992   2.046   2.046   2.187   2.187
  2.247   2.250   2.250   2.290   2.290   2.309   2.309   2.351
  2.381   2.381   2.408   2.408   2.445   2.445   2.452   2.452
  2.504   2.504   2.585   2.585   2.594   2.725   2.725   2.739
  2.739   2.751   2.751   2.829   2.829   2.891   2.906   2.906
  2.995   2.995   3.025   3.105   3.105   3.136   3.136   3.215
  3.306   3.306   3.320   3.320   3.336   3.336   3.549   3.775
  3.889   3.889   4.130   4.130   4.160   4.697   4.697   4.745
  4.858   4.858   4.922   4.922   4.997   5.060   5.060   5.209
  5.209   5.529   5.532   5.532   5.585   5.585   5.680   5.705
  5.705   5.801   5.801   5.821   5.821   5.834   5.834   5.880
  5.880   5.909   5.909   6.068   6.068   6.073   6.073   6.224
  6.357   6.357   6.740   6.740   6.786   6.786   6.858   6.872
  6.872   6.960   6.960   7.056   7.056   7.117   7.117   7.173
  7.478   7.478   7.571   7.571   7.626   7.966   7.966   8.268
  8.268   8.345   8.462   8.462   8.598   8.598   9.166   9.166
  9.297   9.576   9.576   9.748  10.337  10.337  10.644  12.192
 13.125  13.125  14.253  14.651  15.237  15.237  15.316  15.316
 15.665  15.665  15.705  15.705  15.734  15.734  15.936  15.985
 15.985  16.204  16.204  16.223  16.223  16.649  18.439  18.439
 18.469  18.469  18.574  18.574  18.728  18.728  18.926  18.926
 18.998  18.998  19.085  19.328  19.328  19.864  21.035  21.035
 21.316  21.316  21.736  21.736  21.918  22.107  22.107  23.459
 27.015  27.015  28.277  28.938  33.239  33.239  33.245  33.245
 33.313  33.313  33.515  33.515  33.546  37.246  37.246  37.667
 38.649  44.600  44.600  44.655  44.655  44.918  44.918  45.246
 50.596  50.596  51.187  51.187  51.942  59.930  59.930  60.426
 60.426  60.952  70.676  70.676  70.867  70.867  70.987  70.987
 71.216  71.544  71.544  72.460  80.886  85.210  85.210  85.210
 85.210  85.211  85.211  85.211  85.211  85.212  85.212  85.212
 98.234 105.548 105.548 105.552 105.552 105.583 105.583 105.662
105.662 105.662 105.886 105.886 107.048 116.219 116.219 116.710
116.710 117.310 120.976 120.976 121.016 121.016 121.200 121.200
121.439 179.321 179.321 179.664 179.664 180.018 192.493 192.493
193.263 217.731 243.971 243.971 243.974 243.974 243.977 243.977
243.982 243.982 243.984 263.018 263.018 263.432 263.432 263.947
269.452 289.283 289.283 289.361 289.361 289.417 289.417 289.493
296.132 296.132 297.103 553.499 553.499 553.735 553.735 553.973
580.102 619.871 619.871 620.588 833.627 833.627 834.4381184.495
*******
 
 Beta MOs
 -- Occupied --
-88.945 -19.184  -8.020  -5.983  -5.975  -5.975  -1.060  -0.628
 -0.433  -0.401  -0.401
 -- Virtual --
 -0.136  -0.136  -0.010   0.008   0.035   0.035   0.061   0.094
  0.096   0.096   0.126   0.126   0.171   0.199   0.199   0.217
  0.226   0.226   0.273   0.330   0.336   0.336   0.364   0.364
  0.391   0.391   0.380   0.380   0.443   0.443   0.467   0.472
  0.472   0.491   0.491   0.497   0.546   0.616   0.616   0.765
  0.833   0.867   0.867   0.919   0.919   0.936   0.936   1.008
  1.008   1.010   1.010   1.028   1.042   1.042   1.051   1.051
  1.079   1.079   1.110   1.110   1.112   1.129   1.143   1.143
  1.132   1.132   1.203   1.203   1.245   1.331   1.331   1.431
  1.538   1.538   1.597   1.609   1.609   1.998   2.065   2.065
  2.208   2.208   2.264   2.289   2.289   2.300   2.300   2.333
  2.333   2.374   2.404   2.404   2.451   2.451   2.473   2.473
  2.484   2.484   2.527   2.527   2.612   2.612   2.616   2.743
  2.743   2.759   2.759   2.768   2.768   2.844   2.844   2.904
  2.936   2.936   3.012   3.012   3.035   3.129   3.129   3.154
  3.154   3.231   3.337   3.337   3.338   3.338   3.364   3.364
  3.569   3.794   3.910   3.910   4.152   4.152   4.175   4.723
  4.723   4.760   4.886   4.886   4.967   4.967   5.017   5.083
  5.083   5.226   5.226   5.549   5.558   5.558   5.603   5.603
  5.706   5.764   5.764   5.830   5.830   5.867   5.867   5.872
  5.872   5.919   5.919   5.937   5.937   6.101   6.101   6.098
  6.098   6.250   6.379   6.379   6.771   6.771   6.810   6.810
  6.878   6.887   6.887   6.979   6.979   7.088   7.088   7.148
  7.148   7.185   7.513   7.513   7.598   7.598   7.644   7.996
  7.996   8.304   8.304   8.362   8.483   8.483   8.630   8.630
  9.190   9.190   9.313   9.600   9.600   9.760  10.359  10.359
 10.678  12.213  13.169  13.169  14.270  14.665  15.248  15.248
 15.324  15.324  15.710  15.710  15.712  15.712  15.769  15.769
 15.952  16.013  16.013  16.222  16.222  16.245  16.245  16.662
 18.499  18.499  18.538  18.538  18.619  18.619  18.762  18.762
 18.972  18.972  19.026  19.026  19.109  19.360  19.360  19.888
 21.097  21.097  21.331  21.331  21.763  21.763  21.933  22.122
 22.122  23.469  27.027  27.027  28.282  28.973  33.241  33.241
 33.247  33.247  33.314  33.314  33.517  33.517  33.548  37.289
 37.289  37.677  38.664  44.609  44.609  44.661  44.661  44.922
 44.922  45.251  50.609  50.609  51.194  51.194  51.948  59.973
 59.973  60.450  60.450  60.968  70.722  70.722  70.896  70.896
 71.007  71.007  71.233  71.556  71.556  72.464  80.913  85.214
 85.214  85.214  85.214  85.214  85.214  85.216  85.216  85.214
 85.214  85.215  98.244 105.560 105.560 105.561 105.561 105.591
105.591 105.668 105.670 105.670 105.909 105.909 107.056 116.235
116.235 116.719 116.719 117.316 120.994 120.994 121.028 121.028
121.209 121.209 121.447 179.340 179.340 179.674 179.674 180.025
192.504 192.504 193.267 217.744 243.996 243.996 243.992 243.992
243.991 243.991 243.993 243.993 243.994 263.031 263.031 263.439
263.439 263.953 269.460 289.298 289.298 289.371 289.371 289.424
289.424 289.499 296.143 296.143 297.107 553.506 553.506 553.739
553.739 553.975 580.107 619.877 619.877 620.590 833.631 833.631
834.4391184.4982067.021
 --------------------------------------------------------------
 
          Ground-State Mulliken Net Atomic Charges

     Atom                 Charge (a.u.)
  ----------------------------------------
      1 S                     0.402157
      2 O                    -0.402157
  ----------------------------------------
  Sum of atomic charges =    -0.000000

 -----------------------------------------------------------------
                    Cartesian Multipole Moments
 -----------------------------------------------------------------
    Charge (ESU x 10^10)
                -0.0000
    Dipole Moment (Debye)
         X       0.0000      Y      -0.0000      Z      -1.5687
       Tot       1.5687
    Quadrupole Moments (Debye-Ang)
        XX     -17.6467     XY       0.0000     YY     -17.6467
        XZ      -0.0000     YZ       0.0000     ZZ     -20.0988
    Octopole Moments (Debye-Ang^2)
       XXX       0.0000    XXY      -0.0000    XYY       0.0000
       YYY      -0.0000    XXZ      -7.5121    XYZ       0.0000
       YYZ      -7.5121    XZZ       0.0000    YZZ      -0.0000
       ZZZ     -28.9829
    Hexadecapole Moments (Debye-Ang^3)
      XXXX     -20.4814   XXXY      -0.0000   XXYY      -6.8271
      XYYY      -0.0000   YYYY     -20.4814   XXXZ      -0.0000
      XXYZ       0.0000   XYYZ      -0.0000   YYYZ       0.0000
      XXZZ     -18.6351   XYZZ       0.0000   YYZZ     -18.6351
      XZZZ      -0.0000   YZZZ       0.0000   ZZZZ     -97.0754
 -----------------------------------------------------------------
Archival summary:
1\1\n0086.mhg0\SP\ROHF\BasisUnspecified\11(3)\yhljason\WedOct2120:44:102020WedOct2120:44:102020\0\\#,ROHF,BasisUnspecified,\\0,3\S\O,1,1.4811\\HF=-472.383886\\@

 Total job time:  330.62s(wall), 2586.12s(cpu) 
 Wed Oct 21 20:44:10 2020

        *************************************************************
        *                                                           *
        *  Thank you very much for using Q-Chem.  Have a nice day.  *
        *                                                           *
        *************************************************************


